 Gaussian 16, Revision B.01,
 Gaussian 16:  ES64L-G16RevB.01 20-Dec-2017

 ------------------------
 #P ROCCSD(T)/aug-cc-pvtz
 ------------------------

 -----
 Title
 -----
 Symbolic Z-matrix:
 Charge =  0 Multiplicity = 4

                         Standard orientation:
 ---------------------------------------------------------------------
 Center     Atomic      Atomic             Coordinates (Angstroms)
 Number     Number       Type             X           Y           Z
 ---------------------------------------------------------------------
      1          7           0        0.000000    0.000000    0.000000
 ---------------------------------------------------------------------

 SCF Done:  E(ROHF) =  -54.3976095285     A.U. after   11 cycles
 E2 =    -0.1005077167D+00 EUMP2 =    -0.54498117245256D+02
 CCSD(T)
 CCSD(T)= -0.54516786894D+02

 The electronic state is 4-A1G.
 Alpha  occ. eigenvalues --  -15.67431  -1.15187  -0.56755  -0.56755  -0.56755
 Alpha virt. eigenvalues --    0.12058   0.12987   0.12987   0.12987   0.44868
 Alpha virt. eigenvalues --    0.44868   0.44868   0.44868   0.44868   0.72775
 Alpha virt. eigenvalues --    0.72775   0.72775   0.96324   1.47810   1.47810

 Mulliken charges and spin densities:
               1          2
     1  N   -0.000000   3.000000
 Sum of Mulliken charges =  -0.00000   3.00000

 Dipole moment (field-independent basis, Debye):
    X=              0.0000    Y=              0.0000    Z=              0.0000  Tot=              0.0000
 Quadrupole moment (field-independent basis, Debye-Ang):
   XX=             -5.4320   YY=             -5.4320   ZZ=             -5.4320
   XY=              0.0000   XZ=              0.0000   YZ=              0.0000

 76095\PMP2-0=-54.4981172\MP4SDQ=-54.514221\CCSD=-54.5141838\CCSD(T)=-5
 Normal termination of Gaussian 16 at Mon Oct  5 21:28:02 2020.
