   * xtb version 6.2.2 (9d81278992624c895f80dd42a50cac0aa55982e2) compiled by '@Darwin' on 04/03/2020
          program call               : xtb --input C5_18_S_0.input C5_18_S_0.xyz --ohess --molden --namespace C5_18_S_0 output.out
          number of atoms            :                     5
          number of electrons        :                    20
          charge                     :                     0
          spin                       :                   0.0

   ID    Z sym.   atoms
    1    6 C      1-5

          :  Hamiltonian                  GFN2-xTB          :
 * total energy  :   -10.1222536 Eh     change       -0.1692566E-09 Eh
 * total energy  :   -10.1431725 Eh     change       -0.2091889E-01 Eh
 * total energy  :   -10.1916806 Eh     change       -0.4850806E-01 Eh
 * total energy  :   -10.2066816 Eh     change       -0.1500107E-01 Eh
 * total energy  :   -10.2186585 Eh     change       -0.1197685E-01 Eh
 * total energy  :   -10.2282419 Eh     change       -0.9583411E-02 Eh
 * total energy  :   -10.2409035 Eh     change       -0.1266157E-01 Eh
 * total energy  :   -10.2457364 Eh     change       -0.4832902E-02 Eh
 * total energy  :   -10.2471573 Eh     change       -0.1420967E-02 Eh
 * total energy  :   -10.2474799 Eh     change       -0.3225175E-03 Eh
 * total energy  :   -10.2475013 Eh     change       -0.2145718E-04 Eh
 * total energy  :   -10.2475085 Eh     change       -0.7149007E-05 Eh
 * total energy  :   -10.2475109 Eh     change       -0.2436900E-05 Eh
   *** GEOMETRY OPTIMIZATION CONVERGED AFTER 13 ITERATIONS ***

 final structure:
================
5
 xtb: 6.2.2 (9d81278992624c895f80dd42a50cac0aa55982e2)
C         1.09633784395199   -0.00073922657203   -0.00582126341490
C         0.00104570708579    0.93563278366041    0.12070618511263
C        -0.55285949574346    0.12173863668115   -0.93842021955052
C        -0.54302781347411   -0.12100163777740    0.94423836773402
C        -0.00149624182021   -0.93563055599213   -0.12070306988123

          :  Hamiltonian                  GFN2-xTB          :
         :: gradient norm              0.000587329486 Eh/a0 ::
         :: HOMO-LUMO gap              2.773427768031 eV    ::
         :: SCC energy               -10.391871308954 Eh    ::
         :: -> dispersion             -0.002393860503 Eh    ::
         :: repulsion energy           0.144360387100 Eh    ::

    * Orbital Energies and Occupations

         #    Occupation            Energy/Eh            Energy/eV
      -------------------------------------------------------------
         1        2.0000           -0.7769039             -21.1406
         2        2.0000           -0.6563721             -17.8608
         3        2.0000           -0.6563589             -17.8604
         4        2.0000           -0.6480317             -17.6338
         5        2.0000           -0.5376813             -14.6311
         6        2.0000           -0.5376079             -14.6291
         7        2.0000           -0.4991477             -13.5825
         8        2.0000           -0.4781412             -13.0109
         9        2.0000           -0.4751047             -12.9283
        10        2.0000           -0.4750288             -12.9262 (HOMO)
        11                         -0.3731072             -10.1528 (LUMO)
        12                         -0.3266659              -8.8890
        13                         -0.3265924              -8.8870
        14                         -0.2968568              -8.0779
        15                          0.0150316               0.4090
        16                          0.0155633               0.4235
        17                          0.1088464               2.9619
        18                          0.1093002               2.9742
        19                          0.1406366               3.8269
        20                          0.5507212              14.9859
      -------------------------------------------------------------
                  HL-Gap            0.1019216 Eh            2.7734 eV

     #   Z        covCN         q      C6AA      Î±(0)
     1   6 C      3.341    -0.054    26.638     8.160
     2   6 C      3.650     0.080    19.545     6.351
     3   6 C      3.341    -0.054    26.620     8.156
Molecule has the following symmetry elements: (C3) 3*(C2) (S3) 4*(sigma)
It seems to be the D3h point group
     4   6 C      3.341    -0.054    26.620     8.156
     5   6 C      3.650     0.080    19.545     6.351

Wiberg/Mayer (AO) data.
largest (>0.10) Wiberg bond orders for each atom
          total WBO             WBO to atom ...

molecular dipole:
                 x           y           z       tot (Debye)
 q only:       -0.001      -0.000       0.000
   full:       -0.001      -0.000       0.000       0.002

 projected vibrational frequencies (cm-1)
eigval :       -0.00    -0.00    -0.00     0.00     0.00     0.00
eigval :      465.41   465.69   663.60   881.95   883.51  1123.69
eigval :     1136.19  1137.17  1398.16

   temp. (K)  partition function   enthalpy   heat capacity  entropy
                                   cal/mol     cal/K/mol   cal/K/mol   J/K/mol
  10.00  VIB   1.00                    0.000      0.000     -0.001
         ROT   22.1                   29.809      2.981      9.136
         INT   22.1                   29.809      2.981      9.135
         TR   0.277E+25               49.681      4.968     21.322
         TOT                          79.4904     7.9490    30.4573   127.4332

       T/K    H(0)-H(T)+PV         H(T)/Eh          T*S/Eh         G(T)/Eh
   ------------------------------------------------------------------------
    298.15    0.459537E-02    0.231747E-01    0.283990E-01   -0.522432E-02
    120.00    0.153743E-02    0.201167E-01    0.962109E-02    0.104956E-01
    100.00    0.127224E-02    0.198515E-01    0.777601E-02    0.120755E-01
     80.00    0.101441E-02    0.195937E-01    0.599083E-02    0.136029E-01
     60.00    0.760117E-03    0.193394E-01    0.427375E-02    0.150657E-01
     40.00    0.506704E-03    0.190860E-01    0.264372E-02    0.164423E-01
     20.00    0.253352E-03    0.188327E-01    0.114630E-02    0.176864E-01
     10.00    0.126676E-03    0.187060E-01    0.485367E-03    0.182206E-01 (used)
   ------------------------------------------------------------------------

         :::::::::::::::::::::::::::::::::::::::::::::::::::::
         ::                  THERMODYNAMIC                  ::
         :::::::::::::::::::::::::::::::::::::::::::::::::::::
         :: total free energy         -10.229290292419 Eh   ::
         ::.................................................::
         :: total energy              -10.247510904545 Eh   ::
         :: zero point energy           0.018579303380 Eh   ::
         :: G(RRHO) w/o ZPVE           -0.000358691253 Eh   ::
         :: G(RRHO) contrib.            0.018220612126 Eh   ::
         :::::::::::::::::::::::::::::::::::::::::::::::::::::

           -------------------------------------------------
          | TOTAL ENERGY              -10.247510904545 Eh   |
          | TOTAL ENTHALPY            -10.228804925150 Eh   |
          | TOTAL FREE ENERGY         -10.229290292419 Eh   |
          | GRADIENT NORM               0.000587539339 Eh/Î± |
          | HOMO-LUMO GAP               2.773428675505 eV   |
           -------------------------------------------------

 * finished run on 2020/05/12 at 11:44:39.425
