   * xtb version 6.2.2 (9d81278992624c895f80dd42a50cac0aa55982e2) compiled by '@Darwin' on 04/03/2020
          program call               : xtb --input H3C2_0_S_3.input H3C2_0_S_3.xyz --ohess --molden --namespace H3C2_0_S_3 output.out
          number of atoms            :                     5
          number of electrons        :                    11
          charge                     :                     0
          spin                       :                   1.5

   ID    Z sym.   atoms
    1    6 C      1, 2
    2    1 H      3-5

          :  Hamiltonian                  GFN2-xTB          :
 * total energy  :    -5.4810518 Eh     change        0.4890133E-10 Eh
 * total energy  :    -5.4832727 Eh     change       -0.2220933E-02 Eh
 * total energy  :    -5.4836058 Eh     change       -0.3331003E-03 Eh
 * total energy  :    -5.4836397 Eh     change       -0.3389430E-04 Eh
 * total energy  :    -5.4836434 Eh     change       -0.3715813E-05 Eh
   *** GEOMETRY OPTIMIZATION CONVERGED AFTER 5 ITERATIONS ***

 final structure:
================
5
 xtb: 6.2.2 (9d81278992624c895f80dd42a50cac0aa55982e2)
C        -0.05498615895610   -0.00559251598831   -0.00084320539302
C         1.38216143669290    0.14058230614349    0.02120143235587
H        -0.35989618961857   -0.74253003949912   -0.75962984448312
H        -0.54038817332295    0.95342090419997   -0.23850349715926
H        -0.42689091479527   -0.34587965485602    0.97777611467954

          :  Hamiltonian                  GFN2-xTB          :
         :: gradient norm              0.000994758777 Eh/a0 ::
         :: HOMO-LUMO gap             11.758393877831 eV    ::
         :: SCC energy                -5.553920302623 Eh    ::
         :: -> dispersion             -0.001042239912 Eh    ::
         :: repulsion energy           0.070276837023 Eh    ::

    * Orbital Energies and Occupations

         #    Occupation            Energy/Eh            Energy/eV
      -------------------------------------------------------------
         1        2.0000           -0.6184872             -16.8299
         2        2.0000           -0.5362549             -14.5922
         3        2.0000           -0.4999602             -13.6046
         4        2.0000           -0.4999602             -13.6046
         5        1.0000           -0.3897806             -10.6065
         6        1.0000           -0.2931144              -7.9760
         7        1.0000           -0.2931144              -7.9760 (HOMO)
         8                          0.1389986               3.7823 (LUMO)
         9                          0.1904688               5.1829
        10                          0.1904688               5.1829
        11                          0.2563530               6.9757
      -------------------------------------------------------------
                  HL-Gap            0.4321130 Eh           11.7584 eV

     #   Z        covCN         q      C6AA      Î±(0)
Molecule has the following symmetry elements: (C3) 3*(sigma)
It seems to be the C3v point group
     1   6 C      3.749    -0.050    21.529     6.618
     2   6 C      0.979    -0.166    41.383    10.804
     3   1 H      0.923     0.072     2.065     2.247
     4   1 H      0.923     0.072     2.065     2.247
     5   1 H      0.923     0.072     2.065     2.247

Wiberg/Mayer (AO) data.
largest (>0.10) Wiberg bond orders for each atom
          total WBO             WBO to atom ...

molecular dipole:
                 x           y           z       tot (Debye)
 q only:       -0.609      -0.062      -0.009
   full:       -0.651      -0.066      -0.010       1.664

 projected vibrational frequencies (cm-1)
eigval :       -0.00    -0.00    -0.00    -0.00     0.00     0.00
eigval :     1022.46  1022.48  1130.20  1334.17  1402.92  1402.94
eigval :     2811.62  2811.67  2837.05

   temp. (K)  partition function   enthalpy   heat capacity  entropy
                                   cal/mol     cal/K/mol   cal/K/mol   J/K/mol
  10.00  VIB   1.00                    0.000      0.000     -0.000
         ROT   4.89                   29.809      2.981      6.135
         INT   4.89                   29.809      2.981      6.135
         TR   0.836E+24               49.681      4.968     18.945
         TOT                          79.4904     7.9490    25.0797   104.9337

       T/K    H(0)-H(T)+PV         H(T)/Eh          T*S/Eh         G(T)/Eh
   ------------------------------------------------------------------------
    298.15    0.389099E-02    0.398302E-01    0.248703E-01    0.149600E-01
    120.00    0.152016E-02    0.374594E-01    0.857230E-02    0.288871E-01
    100.00    0.126676E-02    0.372060E-01    0.691266E-02    0.302933E-01
     80.00    0.101341E-02    0.369526E-01    0.530405E-02    0.316486E-01
     60.00    0.760056E-03    0.366993E-01    0.375945E-02    0.329398E-01
     40.00    0.506704E-03    0.364459E-01    0.230091E-02    0.341450E-01
     20.00    0.253352E-03    0.361926E-01    0.974899E-03    0.352177E-01
     10.00    0.126676E-03    0.360659E-01    0.399671E-03    0.356662E-01 (used)
   ------------------------------------------------------------------------

         :::::::::::::::::::::::::::::::::::::::::::::::::::::
         ::                  THERMODYNAMIC                  ::
         :::::::::::::::::::::::::::::::::::::::::::::::::::::
         :: total free energy          -5.447977203643 Eh   ::
         ::.................................................::
         :: total energy               -5.483643447639 Eh   ::
         :: zero point energy           0.035939239156 Eh   ::
         :: G(RRHO) w/o ZPVE           -0.000272995160 Eh   ::
         :: G(RRHO) contrib.            0.035666243996 Eh   ::
         :::::::::::::::::::::::::::::::::::::::::::::::::::::

           -------------------------------------------------
          | TOTAL ENERGY               -5.483643447639 Eh   |
          | TOTAL ENTHALPY             -5.447577532468 Eh   |
          | TOTAL FREE ENERGY          -5.447977203643 Eh   |
          | GRADIENT NORM               0.000994759463 Eh/Î± |
          | HOMO-LUMO GAP              11.758394469627 eV   |
           -------------------------------------------------

 * finished run on 2020/05/12 at 11:45:12.547
