   * xtb version 6.2.2 (9d81278992624c895f80dd42a50cac0aa55982e2) compiled by '@Darwin' on 04/03/2020
          program call               : xtb --input C2_0_S_3.input C2_0_S_3.xyz --ohess --molden --namespace C2_0_S_3 output.out
          number of atoms            :                     2
          number of electrons        :                     8
          charge                     :                     0
          spin                       :                   1.5

   ID    Z sym.   atoms
    1    6 C      1, 2

          :  Hamiltonian                  GFN2-xTB          :
 * total energy  :    -3.8857805 Eh     change       -0.3108624E-14 Eh
 * total energy  :    -3.9461145 Eh     change       -0.6033401E-01 Eh
 * total energy  :    -3.9419278 Eh     change        0.4186679E-02 Eh
 * total energy  :    -3.9487507 Eh     change       -0.6822908E-02 Eh
 * total energy  :    -3.9488432 Eh     change       -0.9248127E-04 Eh
 * total energy  :    -3.9488465 Eh     change       -0.3364471E-05 Eh
   *** GEOMETRY OPTIMIZATION CONVERGED AFTER 6 ITERATIONS ***

 final structure:
================
2
 xtb: 6.2.2 (9d81278992624c895f80dd42a50cac0aa55982e2)
C         0.62427690390477    0.00000000000000    0.00000000000000
C        -0.62427690390477    0.00000000000000    0.00000000000000

          :  Hamiltonian                  GFN2-xTB          :
         :: gradient norm              0.000088526497 Eh/a0 ::
         :: HOMO-LUMO gap              4.208576936493 eV    ::
         :: SCC energy                -4.031324527550 Eh    ::
         :: -> dispersion             -0.000365101602 Eh    ::
         :: repulsion energy           0.082477979796 Eh    ::

    * Orbital Energies and Occupations

         #    Occupation            Energy/Eh            Energy/eV
      -------------------------------------------------------------
         1        2.0000           -0.6891342             -18.7523
         2        2.0000           -0.5386349             -14.6570
         3        1.5000           -0.4961701             -13.5015
         4        1.5000           -0.4961701             -13.5015
         5        1.0000           -0.4131890             -11.2434 (HOMO)
         6                         -0.2585266              -7.0349 (LUMO)
         7                         -0.2585266              -7.0349
         8                          0.7015029              19.0889
      -------------------------------------------------------------
                  HL-Gap            0.1546624 Eh            4.2086 eV

     #   Z        covCN         q      C6AA      Î±(0)
     1   6 C      0.981    -0.000    35.905    10.064
     2   6 C      0.981     0.000    35.905    10.064

Wiberg/Mayer (AO) data.
largest (>0.10) Wiberg bond orders for each atom
          total WBO             WBO to atom ...

molecular dipole:
                 x           y           z       tot (Debye)
 q only:       -0.000       0.000       0.000
   full:       -0.000       0.000       0.000       0.000

   temp. (K)  partition function   enthalpy   heat capacity  entropy
                                   cal/mol     cal/K/mol   cal/K/mol   J/K/mol
  10.00  VIB   1.00                    0.000      0.000     -0.000
         ROT   1.93                   19.873      1.987      3.294
         INT   1.93                   19.873      1.987      3.294
         TR   0.700E+24               49.681      4.968     18.592
         TOT                          69.5541     6.9554    21.8858    91.5701

       T/K    H(0)-H(T)+PV         H(T)/Eh          T*S/Eh         G(T)/Eh
   ------------------------------------------------------------------------
    298.15    0.330549E-02    0.772893E-02    0.216152E-01   -0.138863E-01
    120.00    0.133010E-02    0.575353E-02    0.748928E-02   -0.173575E-02
    100.00    0.110842E-02    0.553185E-02    0.603905E-02   -0.507200E-03
     80.00    0.886732E-03    0.531017E-02    0.463344E-02    0.676726E-03
     60.00    0.665049E-03    0.508848E-02    0.328382E-02    0.180466E-02
     40.00    0.443366E-03    0.486680E-02    0.200951E-02    0.285729E-02
     20.00    0.221683E-03    0.464512E-02    0.851149E-03    0.379397E-02
     10.00    0.110842E-03    0.453428E-02    0.348772E-03    0.418550E-02 (used)
   ------------------------------------------------------------------------

         :::::::::::::::::::::::::::::::::::::::::::::::::::::
         ::                  THERMODYNAMIC                  ::
         :::::::::::::::::::::::::::::::::::::::::::::::::::::
         :: total free energy          -3.944661043164 Eh   ::
         ::.................................................::
         :: total energy               -3.948846547754 Eh   ::
         :: zero point energy           0.004423435132 Eh   ::
         :: G(RRHO) w/o ZPVE           -0.000237930542 Eh   ::
         :: G(RRHO) contrib.            0.004185504590 Eh   ::
         :::::::::::::::::::::::::::::::::::::::::::::::::::::

           -------------------------------------------------
          | TOTAL ENERGY               -3.948846547754 Eh   |
          | TOTAL ENTHALPY             -3.944312271108 Eh   |
          | TOTAL FREE ENERGY          -3.944661043164 Eh   |
          | GRADIENT NORM               0.000088524682 Eh/Î± |
          | HOMO-LUMO GAP               4.208576922152 eV   |
           -------------------------------------------------

 * finished run on 2020/05/13 at 16:22:17.949
