   * xtb version 6.2.2 (9d81278992624c895f80dd42a50cac0aa55982e2) compiled by '@Darwin' on 04/03/2020
          program call               : xtb --input C4N1_19_S_1.input C4N1_19_S_1.xyz --ohess --molden --namespace C4N1_19_S_1 output.out
          number of atoms            :                     5
          number of electrons        :                    21
          charge                     :                     0
          spin                       :                   0.5

   ID    Z sym.   atoms
    1    7 N      1
    2    6 C      2-5

          :  Hamiltonian                  GFN2-xTB          :
 * total energy  :   -10.9408493 Eh     change       -0.3562786E-09 Eh
 * total energy  :   -11.0457777 Eh     change       -0.1049284E+00 Eh
 * total energy  :   -11.0737218 Eh     change       -0.2794404E-01 Eh
 * total energy  :   -11.1091140 Eh     change       -0.3539224E-01 Eh
 * total energy  :   -11.1150119 Eh     change       -0.5897847E-02 Eh
 * total energy  :   -11.1184218 Eh     change       -0.3409947E-02 Eh
 * total energy  :   -11.1194195 Eh     change       -0.9976473E-03 Eh
 * total energy  :   -11.1196207 Eh     change       -0.2012444E-03 Eh
 * total energy  :   -11.1195906 Eh     change        0.3009749E-04 Eh
 * total energy  :   -11.1196796 Eh     change       -0.8896318E-04 Eh
 * total energy  :   -11.1196833 Eh     change       -0.3765698E-05 Eh
 * total energy  :   -11.1196881 Eh     change       -0.4796595E-05 Eh
 * total energy  :   -11.1196891 Eh     change       -0.1011376E-05 Eh
   *** GEOMETRY OPTIMIZATION CONVERGED AFTER 13 ITERATIONS ***

 final structure:
================
5
 xtb: 6.2.2 (9d81278992624c895f80dd42a50cac0aa55982e2)
N        -1.40028248777102    0.35998074218024   -0.58895065388571
C        -0.27309304310204   -0.08161911733605   -0.02811606865107
C         1.01336022792861    0.04502111488636    0.24644530897832
C        -1.53240817813145   -0.79358834447531    0.04698836001043
C         2.19242248107589    0.47020560474477    0.32363305354802

          :  Hamiltonian                  GFN2-xTB          :
         :: gradient norm              0.000907241542 Eh/a0 ::
         :: HOMO-LUMO gap              1.932912666566 eV    ::
         :: SCC energy               -11.328975493924 Eh    ::
         :: -> dispersion             -0.002788725332 Eh    ::
         :: repulsion energy           0.209286460509 Eh    ::

    * Orbital Energies and Occupations

         #    Occupation            Energy/Eh            Energy/eV
      -------------------------------------------------------------
         1        2.0000           -0.7579392             -20.6246
         2        2.0000           -0.6897783             -18.7698
         3        2.0000           -0.6488446             -17.6560
         4        2.0000           -0.6207586             -16.8917
         5        2.0000           -0.5911198             -16.0852
         6        2.0000           -0.5683424             -15.4654
         7        2.0000           -0.4993158             -13.5871
         8        2.0000           -0.4866062             -13.2412
         9        2.0000           -0.4603042             -12.5255
        10        2.0000           -0.4539009             -12.3513
        11        1.0000           -0.4299540             -11.6996 (HOMO)
        12                         -0.3589209              -9.7667 (LUMO)
        13                         -0.3269491              -8.8967
        14                         -0.2516899              -6.8488
        15                         -0.1678962              -4.5687
        16                         -0.0426976              -1.1619
        17                          0.0904594               2.4615
        18                          0.3007444               8.1837
        19                          0.5167064              14.0603
        20                          1.1031130              30.0172
      -------------------------------------------------------------
                  HL-Gap            0.0710331 Eh            1.9329 eV

     #   Z        covCN         q      C6AA      Î±(0)
     1   7 N      1.821    -0.078    23.504     7.183
     2   6 C      2.872     0.201    23.726     7.985
     3   6 C      1.962     0.019    30.575     8.930
     4   6 C      1.889    -0.046    32.369     9.189
     5   6 C      0.983    -0.096    38.965    10.485

Wiberg/Mayer (AO) data.
largest (>0.10) Wiberg bond orders for each atom
          total WBO             WBO to atom ...

molecular dipole:
                 x           y           z       tot (Debye)
 q only:       -0.122      -0.098       0.023
   full:       -0.276      -0.098      -0.021       0.747

 projected vibrational frequencies (cm-1)
eigval :       -0.00    -0.00     0.00     0.00     0.00     0.00
eigval :      155.85   176.16   428.90   491.42   737.39   856.87
eigval :     1227.08  1705.35  1841.36

   temp. (K)  partition function   enthalpy   heat capacity  entropy
                                   cal/mol     cal/K/mol   cal/K/mol   J/K/mol
  10.00  VIB   1.00                    0.000      0.000     -0.018
         ROT   223.                   29.809      2.981     13.729
         INT   223.                   29.809      2.981     13.712
         TR   0.290E+25               49.681      4.968     21.419
         TOT                          79.4904     7.9490    35.1310   146.9882

       T/K    H(0)-H(T)+PV         H(T)/Eh          T*S/Eh         G(T)/Eh
   ------------------------------------------------------------------------
    298.15    0.570225E-02    0.230628E-01    0.328368E-01   -0.977409E-02
    120.00    0.177849E-02    0.191390E-01    0.108739E-01    0.826511E-02
    100.00    0.142637E-02    0.187869E-01    0.874111E-02    0.100458E-01
     80.00    0.109571E-02    0.184562E-01    0.669826E-02    0.117580E-01
     60.00    0.789390E-03    0.181499E-01    0.475985E-02    0.133900E-01
     40.00    0.510749E-03    0.178713E-01    0.294783E-02    0.149234E-01
     20.00    0.253364E-03    0.176139E-01    0.129565E-02    0.163182E-01
     10.00    0.126676E-03    0.174872E-01    0.559848E-03    0.169273E-01 (used)
   ------------------------------------------------------------------------

         :::::::::::::::::::::::::::::::::::::::::::::::::::::
         ::                  THERMODYNAMIC                  ::
         :::::::::::::::::::::::::::::::::::::::::::::::::::::
         :: total free energy         -11.102761803553 Eh   ::
         ::.................................................::
         :: total energy              -11.119689138736 Eh   ::
         :: zero point energy           0.017360507500 Eh   ::
         :: G(RRHO) w/o ZPVE           -0.000433172317 Eh   ::
         :: G(RRHO) contrib.            0.016927335183 Eh   ::
         :::::::::::::::::::::::::::::::::::::::::::::::::::::

           -------------------------------------------------
          | TOTAL ENERGY              -11.119689138736 Eh   |
          | TOTAL ENTHALPY            -11.102201955220 Eh   |
          | TOTAL FREE ENERGY         -11.102761803553 Eh   |
          | GRADIENT NORM               0.000907953078 Eh/Î± |
          | HOMO-LUMO GAP               1.932909875931 eV   |
           -------------------------------------------------

 * finished run on 2020/05/12 at 11:44:06.295
