   * xtb version 6.2.2 (9d81278992624c895f80dd42a50cac0aa55982e2) compiled by '@Darwin' on 04/03/2020
          program call               : xtb --input H2C2_0_S_2.input H2C2_0_S_2.xyz --ohess --molden --namespace H2C2_0_S_2 output.out
          number of atoms            :                     4
          number of electrons        :                    10
          charge                     :                     0
          spin                       :                   1.0

   ID    Z sym.   atoms
    1    6 C      1, 2
    2    1 H      3, 4

          :  Hamiltonian                  GFN2-xTB          :
 * total energy  :    -4.9889030 Eh     change       -0.4507895E-08 Eh
 * total energy  :    -5.0141383 Eh     change       -0.2523526E-01 Eh
 * total energy  :    -4.9550734 Eh     change        0.5906491E-01 Eh
 * total energy  :    -5.0268448 Eh     change       -0.7177142E-01 Eh
 * total energy  :    -5.0286120 Eh     change       -0.1767164E-02 Eh
 * total energy  :    -5.0292593 Eh     change       -0.6473358E-03 Eh
 * total energy  :    -5.0293713 Eh     change       -0.1119960E-03 Eh
 * total energy  :    -5.0294186 Eh     change       -0.4733581E-04 Eh
 * total energy  :    -5.0294283 Eh     change       -0.9673961E-05 Eh
 * total energy  :    -5.0294287 Eh     change       -0.4077539E-06 Eh
   *** GEOMETRY OPTIMIZATION CONVERGED AFTER 10 ITERATIONS ***

 final structure:
================
4
 xtb: 6.2.2 (9d81278992624c895f80dd42a50cac0aa55982e2)
C        -0.02768442546197    0.00176787783832   -0.00064726754290
C         1.25262057621184   -0.07996294728485    0.01613563759080
H        -0.55354168904339    0.96256544609207   -0.00583437092441
H        -0.67139446170648   -0.88437037664554   -0.00965399912350

          :  Hamiltonian                  GFN2-xTB          :
         :: gradient norm              0.000337344390 Eh/a0 ::
         :: HOMO-LUMO gap              2.781806167440 eV    ::
         :: SCC energy                -5.128104855100 Eh    ::
         :: -> dispersion             -0.000819274867 Eh    ::
         :: repulsion energy           0.098676124820 Eh    ::

    * Orbital Energies and Occupations

         #    Occupation            Energy/Eh            Energy/eV
      -------------------------------------------------------------
         1        2.0000           -0.6211511             -16.9024
         2        2.0000           -0.5383641             -14.6496
         3        2.0000           -0.5024199             -13.6715
         4        2.0000           -0.4278978             -11.6437
         5        1.0000           -0.3954529             -10.7608
         6        1.0000           -0.3059864              -8.3263 (HOMO)
         7                         -0.2037568              -5.5445 (LUMO)
         8                          0.1375829               3.7438
         9                          0.2685273               7.3070
        10                          0.6717896              18.2803
      -------------------------------------------------------------
                  HL-Gap            0.1022295 Eh            2.7818 eV

     #   Z        covCN         q      C6AA      Î±(0)
     1   6 C      2.828    -0.060    29.471     8.896
     2   6 C      0.981    -0.098    39.024    10.492
     3   1 H      0.924     0.079     1.992     2.207
     4   1 H      0.924     0.079     1.992     2.207

Wiberg/Mayer (AO) data.
largest (>0.10) Wiberg bond orders for each atom
          total WBO             WBO to atom ...

molecular dipole:
                 x           y           z       tot (Debye)
 q only:       -0.411       0.026      -0.005
   full:       -0.452       0.029      -0.006       1.153

 projected vibrational frequencies (cm-1)
eigval :       -0.00    -0.00    -0.00     0.00     0.00     0.00
eigval :      672.21   981.91  1324.76  1733.87  2787.74  2825.00

   temp. (K)  partition function   enthalpy   heat capacity  entropy
                                   cal/mol     cal/K/mol   cal/K/mol   J/K/mol
  10.00  VIB   1.00                    0.000      0.000     -0.000
         ROT   4.17                   29.809      2.981      5.818
         INT   4.17                   29.809      2.981      5.818
         TR   0.790E+24               49.681      4.968     18.832
         TOT                          79.4904     7.9490    24.6498   103.1348

       T/K    H(0)-H(T)+PV         H(T)/Eh          T*S/Eh         G(T)/Eh
   ------------------------------------------------------------------------
    298.15    0.395268E-02    0.274759E-01    0.247540E-01    0.272185E-02
    120.00    0.152112E-02    0.250443E-01    0.849117E-02    0.165531E-01
    100.00    0.126696E-02    0.247901E-01    0.684436E-02    0.179458E-01
     80.00    0.101343E-02    0.245366E-01    0.524927E-02    0.192873E-01
     60.00    0.760056E-03    0.242832E-01    0.371835E-02    0.205649E-01
     40.00    0.506704E-03    0.240299E-01    0.227351E-02    0.217564E-01
     20.00    0.253352E-03    0.237765E-01    0.961197E-03    0.228153E-01
     10.00    0.126676E-03    0.236499E-01    0.392820E-03    0.232570E-01 (used)
   ------------------------------------------------------------------------

         :::::::::::::::::::::::::::::::::::::::::::::::::::::
         ::                  THERMODYNAMIC                  ::
         :::::::::::::::::::::::::::::::::::::::::::::::::::::
         :: total free energy          -5.006171679500 Eh   ::
         ::.................................................::
         :: total energy               -5.029428724960 Eh   ::
         :: zero point energy           0.023523189339 Eh   ::
         :: G(RRHO) w/o ZPVE           -0.000266143879 Eh   ::
         :: G(RRHO) contrib.            0.023257045461 Eh   ::
         :::::::::::::::::::::::::::::::::::::::::::::::::::::

           -------------------------------------------------
          | TOTAL ENERGY               -5.029428724960 Eh   |
          | TOTAL ENTHALPY             -5.005778859605 Eh   |
          | TOTAL FREE ENERGY          -5.006171679500 Eh   |
          | GRADIENT NORM               0.000337367065 Eh/Î± |
          | HOMO-LUMO GAP               2.781807400509 eV   |
           -------------------------------------------------

 * finished run on 2020/05/12 at 11:44:29.381
