   * xtb version 6.2.2 (9d81278992624c895f80dd42a50cac0aa55982e2) compiled by '@Darwin' on 04/03/2020
          program call               : xtb --input C5_0_S_2.input C5_0_S_2.xyz --ohess --molden --namespace C5_0_S_2 output.out
          number of atoms            :                     5
          number of electrons        :                    20
          charge                     :                     0
          spin                       :                   1.0

   ID    Z sym.   atoms
    1    6 C      1-5

          :  Hamiltonian                  GFN2-xTB          :
 * total energy  :    -9.8890401 Eh     change        0.2869900E-09 Eh
 * total energy  :    -9.9115584 Eh     change       -0.2251826E-01 Eh
 * total energy  :    -9.9141256 Eh     change       -0.2567212E-02 Eh
 * total energy  :    -9.9144164 Eh     change       -0.2908044E-03 Eh
 * total energy  :    -9.9144353 Eh     change       -0.1884605E-04 Eh
 * total energy  :    -9.9159035 Eh     change       -0.1468248E-02 Eh
 * total energy  :    -9.9409805 Eh     change       -0.2507693E-01 Eh
 * total energy  :    -9.9777981 Eh     change       -0.3681763E-01 Eh
 * total energy  :   -10.0584518 Eh     change       -0.8065370E-01 Eh
 * total energy  :    -9.9796244 Eh     change        0.7882739E-01 Eh
 * total energy  :   -10.1981876 Eh     change       -0.2825108E-02 Eh
 * total energy  :   -10.1986326 Eh     change       -0.4449421E-03 Eh
 * total energy  :   -10.1989058 Eh     change       -0.2732543E-03 Eh
 * total energy  :   -10.1990807 Eh     change       -0.1748483E-03 Eh
 * total energy  :   -10.1991365 Eh     change       -0.5582207E-04 Eh
 * total energy  :   -10.1991567 Eh     change       -0.2016965E-04 Eh
 * total energy  :   -10.1991636 Eh     change       -0.6898635E-05 Eh
 * total energy  :   -10.1991648 Eh     change       -0.1200388E-05 Eh
 * total energy  :   -10.1991651 Eh     change       -0.3363657E-06 Eh
   *** GEOMETRY OPTIMIZATION CONVERGED AFTER 38 ITERATIONS ***

 final structure:
================
5
 xtb: 6.2.2 (9d81278992624c895f80dd42a50cac0aa55982e2)
C        -0.77388074534621   -1.30865447492826   -1.21877404992343
C        -0.22017718974057   -0.48243368413335   -0.42772719462528
C         0.09639929323200   -0.17504762248753    0.98880511161336
C         0.35927692455693    1.17659513664614    0.98374064962723
C         0.53838171729783    0.78954164490300   -0.32604451669189

          :  Hamiltonian                  GFN2-xTB          :
         :: gradient norm              0.000718623822 Eh/a0 ::
         :: HOMO-LUMO gap              1.141091063550 eV    ::
         :: SCC energy               -10.384995432309 Eh    ::
         :: -> dispersion             -0.002948208105 Eh    ::
         :: repulsion energy           0.185830319526 Eh    ::

    * Orbital Energies and Occupations

         #    Occupation            Energy/Eh            Energy/eV
      -------------------------------------------------------------
         1        2.0000           -0.7380977             -20.0847
         2        2.0000           -0.6789978             -18.4765
         3        2.0000           -0.6191473             -16.8479
         4        2.0000           -0.6159940             -16.7620
         5        2.0000           -0.5552722             -15.1097
         6        2.0000           -0.5456859             -14.8489
         7        2.0000           -0.4740431             -12.8994
         8        2.0000           -0.4628531             -12.5949
         9        2.0000           -0.4559655             -12.4075
        10        1.0000           -0.4206183             -11.4456
        11        1.0000           -0.4056035             -11.0370 (HOMO)
        12                         -0.3636692              -9.8959 (LUMO)
        13                         -0.3038053              -8.2670
        14                         -0.2625741              -7.1450
        15                         -0.1835633              -4.9950
        16                          0.0800397               2.1780
        17                          0.1388581               3.7785
        18                          0.1829353               4.9779
        19                          0.4230374              11.5114
        20                          0.8348944              22.7186
      -------------------------------------------------------------
                  HL-Gap            0.0419343 Eh            1.1411 eV

     #   Z        covCN         q      C6AA      Î±(0)
     1   6 C      0.982    -0.107    39.333    10.534
     2   6 C      3.024     0.105    25.660     8.309
     3   6 C      2.891     0.004    27.925     8.664
     4   6 C      2.048    -0.006    31.142     9.014
     5   6 C      2.891     0.004    27.935     8.665
Molecule has the following symmetry elements: (sigma)
It seems to be the Cs point group

Wiberg/Mayer (AO) data.
largest (>0.10) Wiberg bond orders for each atom
          total WBO             WBO to atom ...

molecular dipole:
                 x           y           z       tot (Debye)
 q only:        0.114       0.160       0.156
   full:        0.207       0.259       0.261       1.073

 projected vibrational frequencies (cm-1)
eigval :       -0.00    -0.00    -0.00    -0.00     0.00     0.00
eigval :      224.77   300.57   441.81   540.35   557.34   936.09
eigval :      978.33  1485.37  1712.03

   temp. (K)  partition function   enthalpy   heat capacity  entropy
                                   cal/mol     cal/K/mol   cal/K/mol   J/K/mol
  10.00  VIB   1.00                    0.000      0.000     -0.005
         ROT   193.                   29.809      2.981     13.436
         INT   193.                   29.809      2.981     13.430
         TR   0.277E+25               49.681      4.968     21.322
         TOT                          79.4904     7.9490    34.7524   145.4041

       T/K    H(0)-H(T)+PV         H(T)/Eh          T*S/Eh         G(T)/Eh
   ------------------------------------------------------------------------
    298.15    0.546544E-02    0.218151E-01    0.319414E-01   -0.101263E-01
    120.00    0.164982E-02    0.179994E-01    0.105931E-01    0.740635E-02
    100.00    0.133252E-02    0.176821E-01    0.853872E-02    0.914343E-02
     80.00    0.103886E-02    0.173885E-01    0.656926E-02    0.108192E-01
     60.00    0.765826E-03    0.171155E-01    0.469168E-02    0.124238E-01
     40.00    0.507048E-03    0.168567E-01    0.291818E-02    0.139385E-01
     20.00    0.253352E-03    0.166030E-01    0.128326E-02    0.153197E-01
     10.00    0.126676E-03    0.164763E-01    0.553815E-03    0.159225E-01 (used)
   ------------------------------------------------------------------------

         :::::::::::::::::::::::::::::::::::::::::::::::::::::
         ::                  THERMODYNAMIC                  ::
         :::::::::::::::::::::::::::::::::::::::::::::::::::::
         :: total free energy         -10.183242632558 Eh   ::
         ::.................................................::
         :: total energy              -10.199165118057 Eh   ::
         :: zero point energy           0.016349624391 Eh   ::
         :: G(RRHO) w/o ZPVE           -0.000427138893 Eh   ::
         :: G(RRHO) contrib.            0.015922485499 Eh   ::
         :::::::::::::::::::::::::::::::::::::::::::::::::::::

           -------------------------------------------------
          | TOTAL ENERGY              -10.199165118057 Eh   |
          | TOTAL ENTHALPY            -10.182688817650 Eh   |
          | TOTAL FREE ENERGY         -10.183242632558 Eh   |
          | GRADIENT NORM               0.000718567067 Eh/Î± |
          | HOMO-LUMO GAP               1.141091353609 eV   |
           -------------------------------------------------

 * finished run on 2020/05/12 at 11:44:30.911
