   * xtb version 6.2.2 (9d81278992624c895f80dd42a50cac0aa55982e2) compiled by '@Darwin' on 04/03/2020
          program call               : xtb --input C3_0_S_0.input C3_0_S_0.xyz --ohess --molden --namespace C3_0_S_0 output.out
          number of atoms            :                     3
          number of electrons        :                    12
          charge                     :                     0
          spin                       :                   0.0

   ID    Z sym.   atoms
    1    6 C      1-3

          :  Hamiltonian                  GFN2-xTB          :
 * total energy  :    -5.9979549 Eh     change        0.7889600E-10 Eh
 * total energy  :    -6.0821938 Eh     change       -0.8423888E-01 Eh
 * total energy  :    -6.0822902 Eh     change       -0.9638187E-04 Eh
 * total energy  :    -6.0904087 Eh     change       -0.8118503E-02 Eh
 * total energy  :    -6.0908765 Eh     change       -0.4678884E-03 Eh
 * total energy  :    -6.0913579 Eh     change       -0.4813850E-03 Eh
 * total energy  :    -6.0914892 Eh     change       -0.1312465E-03 Eh
 * total energy  :    -6.0915448 Eh     change       -0.5567498E-04 Eh
 * total energy  :    -6.0915608 Eh     change       -0.1594469E-04 Eh
 * total energy  :    -6.0915629 Eh     change       -0.2079982E-05 Eh
   *** GEOMETRY OPTIMIZATION CONVERGED AFTER 10 ITERATIONS ***

 final structure:
================
3
 xtb: 6.2.2 (9d81278992624c895f80dd42a50cac0aa55982e2)
C        -0.00040848111725    0.24628930251211    0.00000000000000
C        -1.22864390605677   -0.12518500848197    0.00000000000000
C         1.22905338717403   -0.12110429403014    0.00000000000000

          :  Hamiltonian                  GFN2-xTB          :
         :: gradient norm              0.000684612509 Eh/a0 ::
         :: HOMO-LUMO gap              1.429382325154 eV    ::
         :: SCC energy                -6.224386592688 Eh    ::
         :: -> dispersion             -0.001036750627 Eh    ::
         :: repulsion energy           0.132823722306 Eh    ::

    * Orbital Energies and Occupations

         #    Occupation            Energy/Eh            Energy/eV
      -------------------------------------------------------------
         1        2.0000           -0.7019546             -19.1012
         2        2.0000           -0.6658396             -18.1184
         3        2.0000           -0.5287386             -14.3877
         4        2.0000           -0.5217201             -14.1967
         5        2.0000           -0.5047341             -13.7345
         6        2.0000           -0.4580704             -12.4647 (HOMO)
         7                         -0.4055416             -11.0353 (LUMO)
         8                         -0.3968094             -10.7977
         9                         -0.2282780              -6.2118
        10                         -0.1960852              -5.3357
        11                          0.3926446              10.6844
        12                          0.8921674              24.2771
      -------------------------------------------------------------
                  HL-Gap            0.0525288 Eh            1.4294 eV

     #   Z        covCN         q      C6AA      Î±(0)
     1   6 C      1.962     0.101    28.559     8.630
     2   6 C      0.988    -0.051    37.527    10.293
     3   6 C      0.988    -0.051    37.527    10.293

Wiberg/Mayer (AO) data.
largest (>0.10) Wiberg bond orders for each atom
          total WBO             WBO to atom ...

molecular dipole:
                 x           y           z       tot (Debye)
 q only:       -0.000       0.071      -0.000
   full:       -0.001       0.316      -0.000       0.803

 projected vibrational frequencies (cm-1)
eigval :       -0.00    -0.00    -0.00    -0.00     0.00     0.00
eigval :      105.89  1402.54  1979.10

   temp. (K)  partition function   enthalpy   heat capacity  entropy
                                   cal/mol     cal/K/mol   cal/K/mol   J/K/mol
  10.00  VIB   1.00                    0.000      0.000     -0.028
         ROT   9.03                   29.809      2.981      7.354
         INT   9.03                   29.809      2.981      7.326
         TR   0.129E+25               49.681      4.968     19.800
         TOT                          79.4905     7.9492    27.1264   113.4969

       T/K    H(0)-H(T)+PV         H(T)/Eh          T*S/Eh         G(T)/Eh
   ------------------------------------------------------------------------
    298.15    0.450827E-02    0.124535E-01    0.273053E-01   -0.148519E-01
    120.00    0.170862E-02    0.965381E-02    0.928497E-02    0.368843E-03
    100.00    0.140122E-02    0.934641E-02    0.745832E-02    0.188809E-02
     80.00    0.109783E-02    0.904301E-02    0.569678E-02    0.334623E-02
     60.00    0.801401E-03    0.874659E-02    0.401747E-02    0.472912E-02
     40.00    0.517645E-03    0.846283E-02    0.244866E-02    0.601417E-02
     20.00    0.253589E-03    0.819878E-02    0.104143E-02    0.715735E-02
     10.00    0.126676E-03    0.807186E-02    0.432287E-03    0.763958E-02 (used)
   ------------------------------------------------------------------------

         :::::::::::::::::::::::::::::::::::::::::::::::::::::
         ::                  THERMODYNAMIC                  ::
         :::::::::::::::::::::::::::::::::::::::::::::::::::::
         :: total free energy          -6.083923294593 Eh   ::
         ::.................................................::
         :: total energy               -6.091562872798 Eh   ::
         :: zero point energy           0.007945188767 Eh   ::
         :: G(RRHO) w/o ZPVE           -0.000305610562 Eh   ::
         :: G(RRHO) contrib.            0.007639578205 Eh   ::
         :::::::::::::::::::::::::::::::::::::::::::::::::::::

           -------------------------------------------------
          | TOTAL ENERGY               -6.091562872798 Eh   |
          | TOTAL ENTHALPY             -6.083491007899 Eh   |
          | TOTAL FREE ENERGY          -6.083923294593 Eh   |
          | GRADIENT NORM               0.000684618486 Eh/Î± |
          | HOMO-LUMO GAP               1.429382323583 eV   |
           -------------------------------------------------

 * finished run on 2020/05/12 at 11:44:25.239
