   * xtb version 6.2.2 (9d81278992624c895f80dd42a50cac0aa55982e2) compiled by '@Darwin' on 04/03/2020
          program call               : xtb --input C4N1_0_S_1.input C4N1_0_S_1.xyz --ohess --molden --namespace C4N1_0_S_1 output.out
          number of atoms            :                     5
          number of electrons        :                    21
          charge                     :                     0
          spin                       :                   0.5

   ID    Z sym.   atoms
    1    7 N      1
    2    6 C      2-5

          :  Hamiltonian                  GFN2-xTB          :
 * total energy  :   -10.7325282 Eh     change       -0.1643230E-08 Eh
 * total energy  :   -10.7706537 Eh     change       -0.3812556E-01 Eh
 * total energy  :   -10.8130627 Eh     change       -0.4240895E-01 Eh
 * total energy  :   -10.9032391 Eh     change       -0.9017640E-01 Eh
 * total energy  :   -10.9778490 Eh     change       -0.7460993E-01 Eh
 * total energy  :   -10.7974459 Eh     change        0.1804031E+00 Eh
 * total energy  :   -10.9807029 Eh     change       -0.1832570E+00 Eh
 * total energy  :   -10.9554822 Eh     change        0.2522070E-01 Eh
 * total energy  :   -11.0033404 Eh     change       -0.4785828E-01 Eh
 * total energy  :   -11.0122785 Eh     change       -0.8938088E-02 Eh
 * total energy  :   -11.1830471 Eh     change       -0.1799626E-03 Eh
 * total energy  :   -11.1831072 Eh     change       -0.6009856E-04 Eh
 * total energy  :   -11.1831234 Eh     change       -0.1619514E-04 Eh
 * total energy  :   -11.1831340 Eh     change       -0.1051404E-04 Eh
 * total energy  :   -11.1831443 Eh     change       -0.1035297E-04 Eh
 * total energy  :   -11.1831699 Eh     change       -0.2562147E-04 Eh
 * total energy  :   -11.1831789 Eh     change       -0.8923633E-05 Eh
 * total energy  :   -11.1831840 Eh     change       -0.5150014E-05 Eh
 * total energy  :   -11.1831855 Eh     change       -0.1515953E-05 Eh
   *** GEOMETRY OPTIMIZATION CONVERGED AFTER 66 ITERATIONS ***

 final structure:
================
5
 xtb: 6.2.2 (9d81278992624c895f80dd42a50cac0aa55982e2)
N        -2.17601760673654   -0.28307121632562   -1.18625589489827
C        -1.16290939153294   -0.14910288668022   -0.63194267437779
C         2.23904702466191    0.28748385551183    1.21352174350307
C        -0.00187975960845    0.00082336884022   -0.00005422827109
C         1.10175873321608    0.14386687865377    0.60473105404421

          :  Hamiltonian                  GFN2-xTB          :
         :: gradient norm              0.000982907800 Eh/a0 ::
         :: HOMO-LUMO gap              0.000016453868 eV    ::
         :: SCC energy               -11.456851887678 Eh    ::
         :: -> dispersion             -0.002572117898 Eh    ::
         :: repulsion energy           0.273667581683 Eh    ::

    * Orbital Energies and Occupations

         #    Occupation            Energy/Eh            Energy/eV
      -------------------------------------------------------------
         1        2.0000           -0.6935342             -18.8720
         2        2.0000           -0.6875498             -18.7092
         3        2.0000           -0.6657646             -18.1164
         4        2.0000           -0.6190239             -16.8445
         5        2.0000           -0.5517753             -15.0146
         6        2.0000           -0.5517752             -15.0146
         7        2.0000           -0.4994946             -13.5919
         8        2.0000           -0.4994937             -13.5919
         9        2.0000           -0.4769348             -12.9781
        10        2.0000           -0.4551385             -12.3850
        11        0.5001           -0.4009544             -10.9105 (HOMO)
        12        0.4999           -0.4009538             -10.9105 (LUMO)
        13                         -0.2577500              -7.0137
        14                         -0.2577460              -7.0136
        15                         -0.1249259              -3.3994
        16                         -0.1249152              -3.3991
        17                          0.0589835               1.6050
        18                          0.4377112              11.9107
        19                          0.9978366              27.1525
        20                          1.4157309              38.5240
      -------------------------------------------------------------
                  HL-Gap            0.0000006 Eh            0.0000 eV

     #   Z        covCN         q      C6AA      Î±(0)
     1   7 N      0.912    -0.156    24.363     7.138
     2   6 C      1.892     0.140    27.713     8.502
     3   6 C      0.982    -0.110    39.434    10.548
     4   6 C      1.964     0.058    29.605     8.787
     5   6 C      1.962     0.068    29.354     8.749

Wiberg/Mayer (AO) data.
largest (>0.10) Wiberg bond orders for each atom
          total WBO             WBO to atom ...

molecular dipole:
                 x           y           z       tot (Debye)
 q only:        0.010       0.003       0.008
   full:       -0.048      -0.003      -0.020       0.133

 projected vibrational frequencies (cm-1)
eigval :       -0.00    -0.00    -0.00    -0.00     0.00     0.00
eigval :      115.25   240.79   272.67   447.89   466.07   781.70
eigval :     1508.86  1955.59  2178.42

   temp. (K)  partition function   enthalpy   heat capacity  entropy
                                   cal/mol     cal/K/mol   cal/K/mol   J/K/mol
  10.00  VIB   1.00                    0.000      0.000     -0.028
         ROT   2.47                   29.809      2.981      4.779
         INT   2.47                   29.809      2.981      4.751
         TR   0.290E+25               49.681      4.968     21.419
         TOT                          79.4904     7.9491    26.1708   109.4987

       T/K    H(0)-H(T)+PV         H(T)/Eh          T*S/Eh         G(T)/Eh
   ------------------------------------------------------------------------
    298.15    0.604338E-02    0.241941E-01    0.292227E-01   -0.502862E-02
    120.00    0.182792E-02    0.199786E-01    0.924605E-02    0.107326E-01
    100.00    0.145674E-02    0.196074E-01    0.736775E-02    0.122397E-01
     80.00    0.111406E-02    0.192647E-01    0.558934E-02    0.136754E-01
     60.00    0.800696E-03    0.189514E-01    0.392241E-02    0.150290E-01
     40.00    0.515413E-03    0.186661E-01    0.238415E-02    0.162819E-01
     20.00    0.253484E-03    0.184042E-01    0.101064E-02    0.173935E-01
     10.00    0.126676E-03    0.182774E-01    0.417058E-03    0.178603E-01 (used)
   ------------------------------------------------------------------------

         :::::::::::::::::::::::::::::::::::::::::::::::::::::
         ::                  THERMODYNAMIC                  ::
         :::::::::::::::::::::::::::::::::::::::::::::::::::::
         :: total free energy         -11.165325214649 Eh   ::
         ::.................................................::
         :: total energy              -11.183185518134 Eh   ::
         :: zero point energy           0.018150685809 Eh   ::
         :: G(RRHO) w/o ZPVE           -0.000290382324 Eh   ::
         :: G(RRHO) contrib.            0.017860303485 Eh   ::
         :::::::::::::::::::::::::::::::::::::::::::::::::::::

           -------------------------------------------------
          | TOTAL ENERGY              -11.183185518134 Eh   |
          | TOTAL ENTHALPY            -11.164908156277 Eh   |
          | TOTAL FREE ENERGY         -11.165325214649 Eh   |
          | GRADIENT NORM               0.000980996220 Eh/Î± |
          | HOMO-LUMO GAP               0.000016444208 eV   |
           -------------------------------------------------

 * finished run on 2020/05/12 at 11:43:56.350
