   * xtb version 6.2.2 (9d81278992624c895f80dd42a50cac0aa55982e2) compiled by '@Darwin' on 04/03/2020
          program call               : xtb --input H1C4_0_S_3.input H1C4_0_S_3.xyz --ohess --molden --namespace H1C4_0_S_3 output.out
          number of atoms            :                     5
          number of electrons        :                    17
          charge                     :                     0
          spin                       :                   1.5

   ID    Z sym.   atoms
    1    6 C      1-4
    2    1 H      5

          :  Hamiltonian                  GFN2-xTB          :
 * total energy  :    -8.4811613 Eh     change        0.3077893E-09 Eh
 * total energy  :    -8.5316942 Eh     change       -0.5053285E-01 Eh
 * total energy  :    -8.5473951 Eh     change       -0.1570094E-01 Eh
 * total energy  :    -8.5542768 Eh     change       -0.6881674E-02 Eh
 * total energy  :    -8.5592257 Eh     change       -0.4948921E-02 Eh
 * total energy  :    -8.5909423 Eh     change       -0.3171659E-01 Eh
 * total energy  :    -8.5264981 Eh     change        0.6444423E-01 Eh
 * total energy  :    -8.5984099 Eh     change       -0.7191177E-01 Eh
 * total energy  :    -8.5970364 Eh     change        0.1373465E-02 Eh
 * total energy  :    -8.6132076 Eh     change       -0.1617122E-01 Eh
 * total energy  :    -8.6179775 Eh     change       -0.2495748E-02 Eh
 * total energy  :    -8.6198958 Eh     change       -0.1918352E-02 Eh
 * total energy  :    -8.6207503 Eh     change       -0.8545371E-03 Eh
 * total energy  :    -8.6208812 Eh     change       -0.1308192E-03 Eh
 * total energy  :    -8.6210814 Eh     change       -0.2001860E-03 Eh
 * total energy  :    -8.6211683 Eh     change       -0.8699469E-04 Eh
 * total energy  :    -8.6212009 Eh     change       -0.3253480E-04 Eh
 * total energy  :    -8.6212075 Eh     change       -0.6568170E-05 Eh
 * total energy  :    -8.6212120 Eh     change       -0.4541990E-05 Eh
   *** GEOMETRY OPTIMIZATION CONVERGED AFTER 21 ITERATIONS ***

 final structure:
================
5
 xtb: 6.2.2 (9d81278992624c895f80dd42a50cac0aa55982e2)
C         0.73096153791491    0.13476545078139   -0.02846263612492
C        -0.66369951715172   -0.11542725578453    0.03081980956728
C        -0.10323443095565    1.21097389478621   -0.23313941979306
C        -1.67262474020252   -0.94917955514643    0.19276254579775
H         1.70859715039497   -0.28113253463665    0.03801970055294

          :  Hamiltonian                  GFN2-xTB          :
         :: gradient norm              0.000964423369 Eh/a0 ::
         :: HOMO-LUMO gap              1.225279935019 eV    ::
         :: SCC energy                -8.779915453927 Eh    ::
         :: -> dispersion             -0.002253842179 Eh    ::
         :: repulsion energy           0.158703396061 Eh    ::

    * Orbital Energies and Occupations

         #    Occupation            Energy/Eh            Energy/eV
      -------------------------------------------------------------
         1        2.0000           -0.6972305             -18.9726
         2        2.0000           -0.6365511             -17.3214
         3        2.0000           -0.5914969             -16.0955
         4        2.0000           -0.5397733             -14.6880
         5        2.0000           -0.5180597             -14.0971
         6        2.0000           -0.4892474             -13.3131
         7        1.6948           -0.4224193             -11.4946
         8        1.3052           -0.4208560             -11.4521
         9        1.0000           -0.3962678             -10.7830
        10        1.0000           -0.3185202              -8.6674 (HOMO)
        11                         -0.2734905              -7.4421 (LUMO)
        12                         -0.1992578              -5.4221
        13                         -0.0003930              -0.0107
        14                          0.0654563               1.7812
        15                          0.1783470               4.8531
        16                          0.5526068              15.0372
        17                          0.7602164              20.6865
      -------------------------------------------------------------
                  HL-Gap            0.0450297 Eh            1.2253 eV

     #   Z        covCN         q      C6AA      Î±(0)
     1   6 C      2.888     0.034    27.242     8.557
     2   6 C      2.939     0.109    25.586     8.296
     3   6 C      1.959    -0.097    33.751     9.382
     4   6 C      0.981    -0.127    40.030    10.627
     5   1 H      0.927     0.081     1.965     2.192

Wiberg/Mayer (AO) data.
largest (>0.10) Wiberg bond orders for each atom
          total WBO             WBO to atom ...

molecular dipole:
                 x           y           z       tot (Debye)
 q only:        0.594      -0.052       0.007
   full:        0.886      -0.348       0.063       2.425

 projected vibrational frequencies (cm-1)
eigval :       -0.00    -0.00    -0.00     0.00     0.00     0.00
eigval :      146.68   346.06   610.23   657.26   790.45   880.10
eigval :     1408.01  1615.70  3196.98

   temp. (K)  partition function   enthalpy   heat capacity  entropy
                                   cal/mol     cal/K/mol   cal/K/mol   J/K/mol
  10.00  VIB   1.00                    0.000      0.000     -0.013
         ROT   111.                   29.809      2.981     12.349
         INT   111.                   29.809      2.981     12.336
         TR   0.204E+25               49.681      4.968     20.719
         TOT                          79.4904     7.9490    33.0547   138.3010

       T/K    H(0)-H(T)+PV         H(T)/Eh          T*S/Eh         G(T)/Eh
   ------------------------------------------------------------------------
    298.15    0.522678E-02    0.272145E-01    0.309439E-01   -0.372947E-02
    120.00    0.168786E-02    0.236755E-01    0.103471E-01    0.133284E-01
    100.00    0.137057E-02    0.233583E-01    0.833380E-02    0.150245E-01
     80.00    0.106808E-02    0.230558E-01    0.639746E-02    0.166583E-01
     60.00    0.780894E-03    0.227686E-01    0.455061E-02    0.182180E-01
     40.00    0.510145E-03    0.224978E-01    0.281452E-02    0.196833E-01
     20.00    0.253370E-03    0.222411E-01    0.122940E-02    0.210117E-01
     10.00    0.126676E-03    0.221144E-01    0.526761E-03    0.215876E-01 (used)
   ------------------------------------------------------------------------

         :::::::::::::::::::::::::::::::::::::::::::::::::::::
         ::                  THERMODYNAMIC                  ::
         :::::::::::::::::::::::::::::::::::::::::::::::::::::
         :: total free energy          -8.599624391535 Eh   ::
         ::.................................................::
         :: total energy               -8.621211992716 Eh   ::
         :: zero point energy           0.021987685683 Eh   ::
         :: G(RRHO) w/o ZPVE           -0.000400084502 Eh   ::
         :: G(RRHO) contrib.            0.021587601181 Eh   ::
         :::::::::::::::::::::::::::::::::::::::::::::::::::::

           -------------------------------------------------
          | TOTAL ENERGY               -8.621211992716 Eh   |
          | TOTAL ENTHALPY             -8.599097631017 Eh   |
          | TOTAL FREE ENERGY          -8.599624391535 Eh   |
          | GRADIENT NORM               0.000959470592 Eh/Î± |
          | HOMO-LUMO GAP               1.225319825111 eV   |
           -------------------------------------------------

 * finished run on 2020/05/12 at 11:45:08.006
