   * xtb version 6.2.2 (9d81278992624c895f80dd42a50cac0aa55982e2) compiled by '@Darwin' on 04/03/2020
          program call               : xtb --input H1C4_3_S_3.input H1C4_3_S_3.xyz --ohess --molden --namespace H1C4_3_S_3 output.out
          number of atoms            :                     5
          number of electrons        :                    17
          charge                     :                     0
          spin                       :                   1.5

   ID    Z sym.   atoms
    1    6 C      1-4
    2    1 H      5

          :  Hamiltonian                  GFN2-xTB          :
 * total energy  :    -8.5132504 Eh     change        0.8230927E-10 Eh
 * total energy  :    -8.5852620 Eh     change       -0.7201162E-01 Eh
 * total energy  :    -8.6000153 Eh     change       -0.1475332E-01 Eh
 * total energy  :    -8.6142388 Eh     change       -0.1422347E-01 Eh
 * total energy  :    -8.6155780 Eh     change       -0.1339226E-02 Eh
 * total energy  :    -8.6196303 Eh     change       -0.4052253E-02 Eh
 * total energy  :    -8.6210664 Eh     change       -0.1436163E-02 Eh
 * total energy  :    -8.6206689 Eh     change        0.3975353E-03 Eh
 * total energy  :    -8.6231180 Eh     change       -0.2449089E-02 Eh
 * total energy  :    -8.6237199 Eh     change       -0.6019552E-03 Eh
 * total energy  :    -8.6242637 Eh     change       -0.9933210E-04 Eh
 * total energy  :    -8.6242930 Eh     change       -0.2923284E-04 Eh
 * total energy  :    -8.6243475 Eh     change       -0.5451913E-04 Eh
 * total energy  :    -8.6244031 Eh     change       -0.5558871E-04 Eh
 * total energy  :    -8.6244389 Eh     change       -0.3584448E-04 Eh
 * total energy  :    -8.6244495 Eh     change       -0.1056829E-04 Eh
 * total energy  :    -8.6244411 Eh     change        0.8420480E-05 Eh
 * total energy  :    -8.6244546 Eh     change       -0.1354488E-04 Eh
 * total energy  :    -8.6244562 Eh     change       -0.1633281E-05 Eh
   *** GEOMETRY OPTIMIZATION CONVERGED AFTER 22 ITERATIONS ***

 final structure:
================
5
 xtb: 6.2.2 (9d81278992624c895f80dd42a50cac0aa55982e2)
C        -1.21436572206319    1.23156324922899    0.19602700308817
C        -0.53197532535960    0.06614014274076    0.02686956415744
C         0.83661863766634   -0.03895276696982    0.03829574795220
C         2.01900769704342   -0.40968646299376   -0.09647551812370
H        -1.10928528728697   -0.84906416200619   -0.16471679707412

          :  Hamiltonian                  GFN2-xTB          :
         :: gradient norm              0.000942255641 Eh/a0 ::
         :: HOMO-LUMO gap              1.398886111869 eV    ::
         :: SCC energy                -8.801743671159 Eh    ::
         :: -> dispersion             -0.002288602140 Eh    ::
         :: repulsion energy           0.177287375609 Eh    ::

    * Orbital Energies and Occupations

         #    Occupation            Energy/Eh            Energy/eV
      -------------------------------------------------------------
         1        2.0000           -0.6783494             -18.4588
         2        2.0000           -0.6580796             -17.9073
         3        2.0000           -0.6029718             -16.4077
         4        2.0000           -0.5651182             -15.3776
         5        2.0000           -0.5080009             -13.8234
         6        2.0000           -0.4669783             -12.7071
         7        1.9999           -0.4474504             -12.1757
         8        1.0001           -0.4296316             -11.6909
         9        1.0000           -0.4219003             -11.4805
        10        1.0000           -0.3435215              -9.3477 (HOMO)
        11                         -0.2921136              -7.9488 (LUMO)
        12                         -0.2260892              -6.1522
        13                         -0.1605002              -4.3674
        14                          0.1316326               3.5819
        15                          0.2556919               6.9577
        16                          0.4519148              12.2972
        17                          1.0084408              27.4411
      -------------------------------------------------------------
Molecule has no symmetry elements
It seems to be the C1 point group
                  HL-Gap            0.0514079 Eh            1.3989 eV

     #   Z        covCN         q      C6AA      Î±(0)
     1   6 C      0.994    -0.127    40.115    10.645
     2   6 C      2.885     0.065    26.543     8.446
     3   6 C      1.974     0.055    29.676     8.797
     4   6 C      0.982    -0.101    39.133    10.507
     5   1 H      0.923     0.109     1.707     2.043

Wiberg/Mayer (AO) data.
largest (>0.10) Wiberg bond orders for each atom
          total WBO             WBO to atom ...

molecular dipole:
                 x           y           z       tot (Debye)
 q only:       -0.301      -0.388      -0.055
   full:       -0.475      -0.487      -0.034       1.730

 projected vibrational frequencies (cm-1)
eigval :       -0.00    -0.00    -0.00     0.00     0.00     0.00
eigval :       53.40   217.38   508.78   722.37  1043.91  1136.87
eigval :     1308.79  1813.17  2794.09

   temp. (K)  partition function   enthalpy   heat capacity  entropy
                                   cal/mol     cal/K/mol   cal/K/mol   J/K/mol
  10.00  VIB   1.00                    0.070      0.054      0.044
         ROT   112.                   29.809      2.981     12.352
         INT   112.                   29.879      3.035     12.396
         TR   0.204E+25               49.681      4.968     20.719
         TOT                          79.5607     8.0031    33.1149   138.5526

       T/K    H(0)-H(T)+PV         H(T)/Eh          T*S/Eh         G(T)/Eh
   ------------------------------------------------------------------------
    298.15    0.552504E-02    0.273926E-01    0.319618E-01   -0.456917E-02
    120.00    0.187610E-02    0.237437E-01    0.107433E-01    0.130004E-01
    100.00    0.152424E-02    0.233918E-01    0.864378E-02    0.147481E-01
     80.00    0.118479E-02    0.230524E-01    0.662312E-02    0.164293E-01
     60.00    0.859124E-03    0.227267E-01    0.469615E-02    0.180306E-01
     40.00    0.548860E-03    0.224165E-01    0.288663E-02    0.195298E-01
     20.00    0.258687E-03    0.221263E-01    0.124425E-02    0.208820E-01
     10.00    0.126788E-03    0.219944E-01    0.527719E-03    0.214667E-01 (used)
   ------------------------------------------------------------------------

         :::::::::::::::::::::::::::::::::::::::::::::::::::::
         ::                  THERMODYNAMIC                  ::
         :::::::::::::::::::::::::::::::::::::::::::::::::::::
         :: total free energy          -8.602989569655 Eh   ::
         ::.................................................::
         :: total energy               -8.624456241946 Eh   ::
         :: zero point energy           0.021867603032 Eh   ::
         :: G(RRHO) w/o ZPVE           -0.000400930741 Eh   ::
         :: G(RRHO) contrib.            0.021466672291 Eh   ::
         :::::::::::::::::::::::::::::::::::::::::::::::::::::

           -------------------------------------------------
          | TOTAL ENERGY               -8.624456241946 Eh   |
          | TOTAL ENTHALPY             -8.602461850853 Eh   |
          | TOTAL FREE ENERGY          -8.602989569655 Eh   |
          | GRADIENT NORM               0.000942304503 Eh/Î± |
          | HOMO-LUMO GAP               1.398880646624 eV   |
           -------------------------------------------------

 * finished run on 2020/05/12 at 11:45:09.352
