   * xtb version 6.2.2 (9d81278992624c895f80dd42a50cac0aa55982e2) compiled by '@Darwin' on 04/03/2020
          program call               : xtb --input C1O2_1_S_2.input C1O2_1_S_2.xyz --ohess --molden --namespace C1O2_1_S_2 output.out
          number of atoms            :                     3
          number of electrons        :                    16
          charge                     :                     0
          spin                       :                   1.0

   ID    Z sym.   atoms
    1    8 O      1, 3
    2    6 C      2

          :  Hamiltonian                  GFN2-xTB          :
 * total energy  :    -9.8808276 Eh     change       -0.5666099E-09 Eh
 * total energy  :    -9.9074526 Eh     change       -0.2662498E-01 Eh
 * total energy  :    -9.9094227 Eh     change       -0.1970064E-02 Eh
 * total energy  :    -9.9172243 Eh     change       -0.7801680E-02 Eh
 * total energy  :    -9.9178324 Eh     change       -0.6080813E-03 Eh
 * total energy  :    -9.9179209 Eh     change       -0.8844012E-04 Eh
 * total energy  :    -9.9179396 Eh     change       -0.1872738E-04 Eh
 * total energy  :    -9.9179565 Eh     change       -0.1688740E-04 Eh
 * total energy  :    -9.9179567 Eh     change       -0.1767042E-06 Eh
   *** GEOMETRY OPTIMIZATION CONVERGED AFTER 9 ITERATIONS ***

 final structure:
================
3
 xtb: 6.2.2 (9d81278992624c895f80dd42a50cac0aa55982e2)
O         0.04878126355062    0.40579195617608    0.00000000000000
C         1.09928751816248   -0.18194992160562    0.00000000000000
O        -1.14806878171310   -0.22384203457046    0.00000000000000

          :  Hamiltonian                  GFN2-xTB          :
         :: gradient norm              0.000083991540 Eh/a0 ::
         :: HOMO-LUMO gap              1.753194384300 eV    ::
         :: SCC energy                -9.958082301834 Eh    ::
         :: -> dispersion             -0.000701627162 Eh    ::
         :: repulsion energy           0.040125644400 Eh    ::

    * Orbital Energies and Occupations

         #    Occupation            Energy/Eh            Energy/eV
      -------------------------------------------------------------
         1        2.0000           -0.8446829             -22.9850
Molecule has the following symmetry elements: (sigma)
It seems to be the Cs point group
         2        2.0000           -0.7885162             -21.4566
         3        2.0000           -0.7084405             -19.2776
         4        2.0000           -0.6829219             -18.5833
         5        2.0000           -0.6563400             -17.8599
         6        2.0000           -0.5344519             -14.5432
         7        2.0000           -0.5048016             -13.7363
         8        1.0000           -0.4832045             -13.1487
         9        1.0000           -0.3944134             -10.7325 (HOMO)
        10                         -0.3299847              -8.9793 (LUMO)
        11                         -0.1078019              -2.9334
        12                          0.5008957              13.6301
      -------------------------------------------------------------
                  HL-Gap            0.0644287 Eh            1.7532 eV

     #   Z        covCN         q      C6AA      Î±(0)
     1   8 O      1.817     0.196    12.180     4.713
     2   6 C      0.864     0.017    34.608     9.820
     3   8 O      0.970    -0.213    18.234     5.728

Wiberg/Mayer (AO) data.
largest (>0.10) Wiberg bond orders for each atom
          total WBO             WBO to atom ...

molecular dipole:
                 x           y           z       tot (Debye)
 q only:        0.516       0.234      -0.000
   full:        0.363       0.371      -0.000       1.319

 projected vibrational frequencies (cm-1)
eigval :       -0.00    -0.00    -0.00     0.00     0.00     0.00
eigval :      582.90   750.23  1583.52

   temp. (K)  partition function   enthalpy   heat capacity  entropy
                                   cal/mol     cal/K/mol   cal/K/mol   J/K/mol
  10.00  VIB   1.00                    0.000      0.000     -0.000
         ROT   33.4                   29.809      2.981      9.956
         INT   33.4                   29.809      2.981      9.956
         TR   0.174E+25               49.681      4.968     20.396
         TOT                          79.4904     7.9490    30.3514   126.9903

       T/K    H(0)-H(T)+PV         H(T)/Eh          T*S/Eh         G(T)/Eh
   ------------------------------------------------------------------------
    298.15    0.404397E-02    0.106886E-01    0.275912E-01   -0.169026E-01
    120.00    0.152299E-02    0.816760E-02    0.958366E-02   -0.141606E-02
    100.00    0.126744E-02    0.791205E-02    0.775352E-02    0.158529E-03
     80.00    0.101349E-02    0.765810E-02    0.597623E-02    0.168187E-02
     60.00    0.760058E-03    0.740467E-02    0.426352E-02    0.314115E-02
     40.00    0.506704E-03    0.715132E-02    0.263696E-02    0.451436E-02
     20.00    0.253352E-03    0.689796E-02    0.114292E-02    0.575505E-02
     10.00    0.126676E-03    0.677129E-02    0.483681E-03    0.628761E-02 (used)
   ------------------------------------------------------------------------

         :::::::::::::::::::::::::::::::::::::::::::::::::::::
         ::                  THERMODYNAMIC                  ::
         :::::::::::::::::::::::::::::::::::::::::::::::::::::
         :: total free energy          -9.911669049917 Eh   ::
         ::.................................................::
         :: total energy               -9.917956657785 Eh   ::
         :: zero point energy           0.006644612399 Eh   ::
         :: G(RRHO) w/o ZPVE           -0.000357004531 Eh   ::
         :: G(RRHO) contrib.            0.006287607868 Eh   ::
         :::::::::::::::::::::::::::::::::::::::::::::::::::::

           -------------------------------------------------
          | TOTAL ENERGY               -9.917956657785 Eh   |
          | TOTAL ENTHALPY             -9.911185369370 Eh   |
          | TOTAL FREE ENERGY          -9.911669049917 Eh   |
          | GRADIENT NORM               0.000083919733 Eh/Î± |
          | HOMO-LUMO GAP               1.753194667543 eV   |
           -------------------------------------------------

 * finished run on 2020/05/12 at 11:44:49.290
