   * xtb version 6.2.2 (9d81278992624c895f80dd42a50cac0aa55982e2) compiled by '@Darwin' on 04/03/2020
          program call               : xtb --input H2C1N1_2_S_1.input H2C1N1_2_S_1.xyz --ohess --molden --namespace H2C1N1_2_S_1 output.out
          number of atoms            :                     4
          number of electrons        :                    11
          charge                     :                     0
          spin                       :                   0.5

   ID    Z sym.   atoms
    1    6 C      1
    2    7 N      2
    3    1 H      3, 4

          :  Hamiltonian                  GFN2-xTB          :
 * total energy  :    -5.8656081 Eh     change       -0.2690763E-09 Eh
 * total energy  :    -5.8840815 Eh     change       -0.1847334E-01 Eh
 * total energy  :    -5.8969818 Eh     change       -0.1290038E-01 Eh
 * total energy  :    -5.8989480 Eh     change       -0.1966192E-02 Eh
 * total energy  :    -5.8999903 Eh     change       -0.1042288E-02 Eh
 * total energy  :    -5.9003707 Eh     change       -0.3803937E-03 Eh
 * total energy  :    -5.9004483 Eh     change       -0.7757170E-04 Eh
 * total energy  :    -5.9004535 Eh     change       -0.5237785E-05 Eh
 * total energy  :    -5.9004537 Eh     change       -0.1411415E-06 Eh
   *** GEOMETRY OPTIMIZATION CONVERGED AFTER 9 ITERATIONS ***

 final structure:
================
4
 xtb: 6.2.2 (9d81278992624c895f80dd42a50cac0aa55982e2)
C         1.24464987094932   -0.01924452058819    0.02407974651123
N        -0.03402719799505    0.00052738553451   -0.00074462160678
H        -0.61825488373917   -0.84337791158588   -0.02413928589261
H        -0.59236778921510    0.86209504663955    0.00080516098816

          :  Hamiltonian                  GFN2-xTB          :
         :: gradient norm              0.000090152329 Eh/a0 ::
         :: HOMO-LUMO gap              1.444441632584 eV    ::
         :: SCC energy                -5.972838273880 Eh    ::
         :: -> dispersion             -0.000735361475 Eh    ::
         :: repulsion energy           0.072384595221 Eh    ::

    * Orbital Energies and Occupations

         #    Occupation            Energy/Eh            Energy/eV
      -------------------------------------------------------------
         1        2.0000           -0.6501900             -17.6926
         2        2.0000           -0.5932422             -16.1429
         3        2.0000           -0.5581657             -15.1885
         4        2.0000           -0.4768900             -12.9768
         5        2.0000           -0.4125966             -11.2273
         6        1.0000           -0.2837941              -7.7224 (HOMO)
         7                         -0.2307119              -6.2780 (LUMO)
         8                          0.0122214               0.3326
         9                          0.1960411               5.3346
        10                          0.4827687              13.1368
      -------------------------------------------------------------
                  HL-Gap            0.0530822 Eh            1.4444 eV

     #   Z        covCN         q      C6AA      Î±(0)
     1   6 C      0.910    -0.219    42.792    10.947
     2   7 N      2.629    -0.099    23.196     7.153
     3   1 H      0.859     0.159     1.340     1.813
     4   1 H      0.859     0.159     1.340     1.813

Wiberg/Mayer (AO) data.
largest (>0.10) Wiberg bond orders for each atom
          total WBO             WBO to atom ...

molecular dipole:
                 x           y           z       tot (Debye)
 q only:       -0.874       0.014      -0.017
   full:       -1.492       0.023      -0.029       3.793

 projected vibrational frequencies (cm-1)
eigval :       -0.00    -0.00    -0.00    -0.00    -0.00     0.00
eigval :      771.60   945.65  1452.17  1501.59  3055.93  3117.29

   temp. (K)  partition function   enthalpy   heat capacity  entropy
                                   cal/mol     cal/K/mol   cal/K/mol   J/K/mol
  10.00  VIB   1.00                    0.000      0.000     -0.000
         ROT   3.93                   29.809      2.981      5.699
         INT   3.93                   29.809      2.981      5.699
         TR   0.882E+24               49.681      4.968     19.052
         TOT                          79.4904     7.9490    24.7508   103.5573

       T/K    H(0)-H(T)+PV         H(T)/Eh          T*S/Eh         G(T)/Eh
   ------------------------------------------------------------------------
    298.15    0.392013E-02    0.286251E-01    0.247563E-01    0.386885E-02
    120.00    0.152050E-02    0.262255E-01    0.850978E-02    0.177157E-01
    100.00    0.126682E-02    0.259718E-01    0.686030E-02    0.191115E-01
     80.00    0.101341E-02    0.257184E-01    0.526212E-02    0.204563E-01
     60.00    0.760056E-03    0.254650E-01    0.372800E-02    0.217370E-01
     40.00    0.506704E-03    0.252117E-01    0.227995E-02    0.229317E-01
     20.00    0.253352E-03    0.249583E-01    0.964415E-03    0.239939E-01
     10.00    0.126676E-03    0.248317E-01    0.394429E-03    0.244372E-01 (used)
   ------------------------------------------------------------------------

         :::::::::::::::::::::::::::::::::::::::::::::::::::::
         ::                  THERMODYNAMIC                  ::
         :::::::::::::::::::::::::::::::::::::::::::::::::::::
         :: total free energy          -5.876016448379 Eh   ::
         ::.................................................::
         :: total energy               -5.900453674913 Eh   ::
         :: zero point energy           0.024704979594 Eh   ::
         :: G(RRHO) w/o ZPVE           -0.000267753061 Eh   ::
         :: G(RRHO) contrib.            0.024437226534 Eh   ::
         :::::::::::::::::::::::::::::::::::::::::::::::::::::

           -------------------------------------------------
          | TOTAL ENERGY               -5.900453674913 Eh   |
          | TOTAL ENTHALPY             -5.875622019303 Eh   |
          | TOTAL FREE ENERGY          -5.876016448379 Eh   |
          | GRADIENT NORM               0.000089998397 Eh/Î± |
          | HOMO-LUMO GAP               1.444441058138 eV   |
           -------------------------------------------------

 * finished run on 2020/05/12 at 11:43:50.355
