   * xtb version 6.2.2 (9d81278992624c895f80dd42a50cac0aa55982e2) compiled by '@Darwin' on 04/03/2020
          program call               : xtb --input C3N1_8_S_1.input C3N1_8_S_1.xyz --ohess --molden --namespace C3N1_8_S_1 output.out
          number of atoms            :                     4
          number of electrons        :                    17
          charge                     :                     0
          spin                       :                   0.5

   ID    Z sym.   atoms
    1    6 C      1-3
    2    7 N      4

          :  Hamiltonian                  GFN2-xTB          :
 * total energy  :    -8.9476605 Eh     change        0.3016254E-09 Eh
 * total energy  :    -8.9652772 Eh     change       -0.1761678E-01 Eh
 * total energy  :    -8.9738939 Eh     change       -0.8616635E-02 Eh
 * total energy  :    -8.9755353 Eh     change       -0.1641407E-02 Eh
 * total energy  :    -8.9761004 Eh     change       -0.5650785E-03 Eh
 * total energy  :    -8.9762052 Eh     change       -0.1048160E-03 Eh
 * total energy  :    -8.9763235 Eh     change       -0.1183541E-03 Eh
 * total energy  :    -8.9764903 Eh     change       -0.1667783E-03 Eh
 * total energy  :    -8.9768604 Eh     change       -0.3701101E-03 Eh
 * total energy  :    -8.9777990 Eh     change       -0.9385459E-03 Eh
 * total energy  :    -8.9800353 Eh     change       -0.2236346E-02 Eh
 * total energy  :    -8.9828790 Eh     change       -0.2843707E-02 Eh
 * total energy  :    -8.9833383 Eh     change       -0.4592791E-03 Eh
 * total energy  :    -8.9834209 Eh     change       -0.8257173E-04 Eh
 * total energy  :    -8.9834486 Eh     change       -0.2776444E-04 Eh
 * total energy  :    -8.9834491 Eh     change       -0.4403612E-06 Eh
   *** GEOMETRY OPTIMIZATION CONVERGED AFTER 16 ITERATIONS ***

 final structure:
================
4
 xtb: 6.2.2 (9d81278992624c895f80dd42a50cac0aa55982e2)
C        -0.89962980003404    0.02256250428557   -0.15160287485068
C         0.01768073969995   -0.96511470337983    0.25340154302927
C         0.85583078779738    0.01139970970010   -0.31662107000417
N         0.02611827253671    0.93115248939416    0.21482240182558

          :  Hamiltonian                  GFN2-xTB          :
         :: gradient norm              0.000630434419 Eh/a0 ::
         :: HOMO-LUMO gap              2.061628239018 eV    ::
         :: SCC energy                -9.094760823133 Eh    ::
         :: -> dispersion             -0.001671668079 Eh    ::
         :: repulsion energy           0.111311734069 Eh    ::

    * Orbital Energies and Occupations

         #    Occupation            Energy/Eh            Energy/eV
      -------------------------------------------------------------
         1        2.0000           -0.7676711             -20.8894
         2        2.0000           -0.6566031             -17.8671
         3        2.0000           -0.6451411             -17.5552
         4        2.0000           -0.5910441             -16.0831
         5        2.0000           -0.5541213             -15.0784
         6        2.0000           -0.5112908             -13.9129
         7        2.0000           -0.4793634             -13.0441
         8        1.9999           -0.4498091             -12.2399
         9        1.0001           -0.4325361             -11.7699 (HOMO)
        10                         -0.3567727              -9.7083 (LUMO)
        11                         -0.2941373              -8.0039
        12                         -0.2798709              -7.6157
        13                          0.0760530               2.0695
        14                          0.1301815               3.5424
        15                          0.1743885               4.7454
        16                          0.4895591              13.3216
Molecule has the following symmetry elements: (sigma)
It seems to be the Cs point group
      -------------------------------------------------------------
                  HL-Gap            0.0757634 Eh            2.0616 eV

     #   Z        covCN         q      C6AA      Î±(0)
     1   6 C      2.768     0.049    26.887     8.492
     2   6 C      2.513    -0.028    28.829     8.772
     3   6 C      2.768     0.049    26.887     8.492
     4   7 N      2.373    -0.070    22.740     7.080

Wiberg/Mayer (AO) data.
largest (>0.10) Wiberg bond orders for each atom
          total WBO             WBO to atom ...

molecular dipole:
                 x           y           z       tot (Debye)
 q only:       -0.008      -0.069      -0.085
   full:       -0.035       0.038      -0.375       0.962

 projected vibrational frequencies (cm-1)
eigval :       -0.00    -0.00    -0.00    -0.00     0.00     0.00
eigval :      304.21   593.79   723.27  1003.77  1263.02  1505.87

   temp. (K)  partition function   enthalpy   heat capacity  entropy
                                   cal/mol     cal/K/mol   cal/K/mol   J/K/mol
  10.00  VIB   1.00                    0.000      0.000     -0.001
         ROT   71.8                   29.809      2.981     11.473
         INT   71.8                   29.809      2.981     11.472
         TR   0.210E+25               49.681      4.968     20.778
         TOT                          79.4904     7.9490    32.2500   134.9340

       T/K    H(0)-H(T)+PV         H(T)/Eh          T*S/Eh         G(T)/Eh
   ------------------------------------------------------------------------
    298.15    0.451295E-02    0.168012E-01    0.292206E-01   -0.124194E-01
    120.00    0.155998E-02    0.138483E-01    0.999405E-02    0.385420E-02
    100.00    0.128503E-02    0.135733E-01    0.807792E-02    0.549538E-02
     80.00    0.101933E-02    0.133076E-01    0.622538E-02    0.708223E-02
     60.00    0.761000E-03    0.130493E-01    0.444625E-02    0.860302E-02
     40.00    0.506729E-03    0.127950E-01    0.275807E-02    0.100369E-01
     20.00    0.253352E-03    0.125416E-01    0.120345E-02    0.113382E-01
     10.00    0.126676E-03    0.124149E-01    0.513937E-03    0.119010E-01 (used)
   ------------------------------------------------------------------------

         :::::::::::::::::::::::::::::::::::::::::::::::::::::
         ::                  THERMODYNAMIC                  ::
         :::::::::::::::::::::::::::::::::::::::::::::::::::::
         :: total free energy          -8.971548071743 Eh   ::
         ::.................................................::
         :: total energy               -8.983449084036 Eh   ::
         :: zero point energy           0.012288272914 Eh   ::
         :: G(RRHO) w/o ZPVE           -0.000387260621 Eh   ::
         :: G(RRHO) contrib.            0.011901012294 Eh   ::
         :::::::::::::::::::::::::::::::::::::::::::::::::::::

           -------------------------------------------------
          | TOTAL ENERGY               -8.983449084036 Eh   |
          | TOTAL ENTHALPY             -8.971034135106 Eh   |
          | TOTAL FREE ENERGY          -8.971548071743 Eh   |
          | GRADIENT NORM               0.000630690304 Eh/Î± |
          | HOMO-LUMO GAP               2.061627054550 eV   |
           -------------------------------------------------

 * finished run on 2020/05/12 at 11:45:06.331
