   * xtb version 6.2.2 (9d81278992624c895f80dd42a50cac0aa55982e2) compiled by '@Darwin' on 04/03/2020
          program call               : xtb --input N1_0_S_0.input N1_0_S_0.xyz --ohess --molden --namespace N1_0_S_0 output.out
          number of atoms            :                     1
          number of electrons        :                     5
          charge                     :                     0
          spin                       :                   0.5

   ID    Z sym.   atoms
    1    7 N      1

          :  Hamiltonian                  GFN2-xTB          :

 final structure:
================
1
 xtb: 6.2.2 (9d81278992624c895f80dd42a50cac0aa55982e2)
N         0.00000000000000    0.00000000000000    0.00000000000000

          :  Hamiltonian                  GFN2-xTB          :
         :: gradient norm              0.000000000000 Eh/a0 ::
         :: HOMO-LUMO gap              0.000000000000 eV    ::
         :: SCC energy                -2.609452454822 Eh    ::
         :: -> dispersion              0.000000000000 Eh    ::
         :: repulsion energy           0.000000000000 Eh    ::

    * Orbital Energies and Occupations

         #    Occupation            Energy/Eh            Energy/eV
      -------------------------------------------------------------
         1        2.0000           -0.6106538             -16.6167
         2        1.0000           -0.4656895             -12.6721
Molecule has the following symmetry elements: (i) (Cinf) (sigma)
It seems to be the Kh point group
         3        1.0000           -0.4656895             -12.6721 (HOMO)
         4        1.0000           -0.4656895             -12.6721 (LUMO)
      -------------------------------------------------------------
                  HL-Gap            0.0000000 Eh            0.0000 eV

     #   Z        covCN         q      C6AA      Î±(0)
     1   7 N      0.000    -0.000    25.360     7.537

Wiberg/Mayer (AO) data.
largest (>0.10) Wiberg bond orders for each atom
          total WBO             WBO to atom ...

molecular dipole:
                 x           y           z       tot (Debye)
 q only:        0.000       0.000       0.000
   full:        0.000       0.000       0.000       0.000

   temp. (K)  partition function   enthalpy   heat capacity  entropy
                                   cal/mol     cal/K/mol   cal/K/mol   J/K/mol
  10.00  VIB   1.00                    0.000      0.000      0.000
         ROT   1.00                    0.000      0.000      0.000
         INT   1.00                    0.000      0.000      0.000
         TR   0.312E+24               49.681      4.968     16.985
         TOT                          49.6815     4.9681    16.9848    71.0645

       T/K    H(0)-H(T)+PV         H(T)/Eh          T*S/Eh         G(T)/Eh
   ------------------------------------------------------------------------
    298.15    0.236053E-02    0.236053E-02    0.160801E-01   -0.137196E-01
    120.00    0.950070E-03    0.950070E-03    0.560773E-02   -0.465766E-02
    100.00    0.791725E-03    0.791725E-03    0.452883E-02   -0.373710E-02
     80.00    0.633380E-03    0.633380E-03    0.348180E-02   -0.284842E-02
     60.00    0.475035E-03    0.475035E-03    0.247476E-02   -0.199972E-02
     40.00    0.316690E-03    0.316690E-03    0.152149E-02   -0.120480E-02
     20.00    0.158345E-03    0.158345E-03    0.651044E-03   -0.492699E-03
     10.00    0.791725E-04    0.791725E-04    0.270670E-03   -0.191498E-03 (used)
   ------------------------------------------------------------------------

         :::::::::::::::::::::::::::::::::::::::::::::::::::::
         ::                  THERMODYNAMIC                  ::
         :::::::::::::::::::::::::::::::::::::::::::::::::::::
         :: total free energy          -2.609643952695 Eh   ::
         ::.................................................::
         :: total energy               -2.609452454822 Eh   ::
         :: zero point energy           0.000000000000 Eh   ::
         :: G(RRHO) w/o ZPVE           -0.000191497873 Eh   ::
         :: G(RRHO) contrib.           -0.000191497873 Eh   ::
         :::::::::::::::::::::::::::::::::::::::::::::::::::::

           -------------------------------------------------
          | TOTAL ENERGY               -2.609452454822 Eh   |
          | TOTAL ENTHALPY             -2.609373282312 Eh   |
          | TOTAL FREE ENERGY          -2.609643952695 Eh   |
          | GRADIENT NORM               0.000000000000 Eh/Î± |
          | HOMO-LUMO GAP               0.000000000000 eV   |
           -------------------------------------------------

 * finished run on 2020/05/13 at 16:25:46.546
