   * xtb version 6.2.2 (9d81278992624c895f80dd42a50cac0aa55982e2) compiled by '@Darwin' on 04/03/2020
          program call               : xtb --input C5_11_S_2.input C5_11_S_2.xyz --ohess --molden --namespace C5_11_S_2 output.out
          number of atoms            :                     5
          number of electrons        :                    20
          charge                     :                     0
          spin                       :                   1.0

   ID    Z sym.   atoms
    1    6 C      1-5

          :  Hamiltonian                  GFN2-xTB          :
 * total energy  :   -10.1052206 Eh     change        0.3292548E-09 Eh
 * total energy  :   -10.1540109 Eh     change       -0.4879035E-01 Eh
 * total energy  :   -10.1673960 Eh     change       -0.1338504E-01 Eh
 * total energy  :   -10.1843857 Eh     change       -0.1698975E-01 Eh
 * total energy  :   -10.1887904 Eh     change       -0.4404655E-02 Eh
 * total energy  :   -10.1945042 Eh     change       -0.5713816E-02 Eh
 * total energy  :   -10.1966669 Eh     change       -0.2162718E-02 Eh
 * total energy  :   -10.1969516 Eh     change       -0.2846588E-03 Eh
 * total energy  :   -10.1982343 Eh     change       -0.1282713E-02 Eh
 * total energy  :   -10.1987636 Eh     change       -0.5293114E-03 Eh
 * total energy  :   -10.1990498 Eh     change       -0.2861603E-03 Eh
 * total energy  :   -10.1991417 Eh     change       -0.9194138E-04 Eh
 * total energy  :   -10.1991655 Eh     change       -0.2375718E-04 Eh
 * total energy  :   -10.1991659 Eh     change       -0.4698179E-06 Eh
   *** GEOMETRY OPTIMIZATION CONVERGED AFTER 14 ITERATIONS ***

 final structure:
================
5
 xtb: 6.2.2 (9d81278992624c895f80dd42a50cac0aa55982e2)
C        -1.56490594253970    0.18014297179014   -0.04067858267228
C        -0.53311108990852   -0.35289183738276   -0.78048953087142
C         0.68159166063678   -0.00981669181738    0.00040654083312
C        -0.52813805538741    0.06017583425695    0.85752577928461
C         1.94456442719885    0.12238972315305   -0.03676520657404

          :  Hamiltonian                  GFN2-xTB          :
         :: gradient norm              0.000166258880 Eh/a0 ::
         :: HOMO-LUMO gap              1.136119994364 eV    ::
         :: SCC energy               -10.385261284617 Eh    ::
         :: -> dispersion             -0.002948083056 Eh    ::
         :: repulsion energy           0.186095366327 Eh    ::

    * Orbital Energies and Occupations

         #    Occupation            Energy/Eh            Energy/eV
      -------------------------------------------------------------
         1        2.0000           -0.7380788             -20.0841
         2        2.0000           -0.6789645             -18.4756
         3        2.0000           -0.6191268             -16.8473
         4        2.0000           -0.6159659             -16.7613
         5        2.0000           -0.5552715             -15.1097
         6        2.0000           -0.5457000             -14.8493
         7        2.0000           -0.4739295             -12.8963
         8        2.0000           -0.4628131             -12.5938
         9        2.0000           -0.4560020             -12.4084
        10        1.0000           -0.4205502             -11.4438
        11        1.0000           -0.4054287             -11.0323 (HOMO)
        12                         -0.3636772              -9.8962 (LUMO)
        13                         -0.3036966              -8.2640
        14                         -0.2625758              -7.1451
        15                         -0.1832021              -4.9852
        16                          0.0799623               2.1759
        17                          0.1387850               3.7765
        18                          0.1835179               4.9938
        19                          0.4237341              11.5304
        20                          0.8362497              22.7555
      -------------------------------------------------------------
                  HL-Gap            0.0417515 Eh            1.1361 eV

     #   Z        covCN         q      C6AA      Î±(0)
     1   6 C      2.047    -0.006    31.147     9.014
     2   6 C      2.891     0.004    27.927     8.664
     3   6 C      3.023     0.105    25.664     8.310
     4   6 C      2.891     0.004    27.927     8.664
     5   6 C      0.982    -0.107    39.332    10.534

Wiberg/Mayer (AO) data.
largest (>0.10) Wiberg bond orders for each atom
          total WBO             WBO to atom ...

molecular dipole:
                 x           y           z       tot (Debye)
 q only:       -0.248      -0.031       0.009
   full:       -0.414      -0.070       0.019       1.068

 projected vibrational frequencies (cm-1)
eigval :       -0.00    -0.00     0.00     0.00     0.00     0.00
eigval :      223.35   300.43   440.91   540.11   555.94   937.68
eigval :      977.54  1487.21  1714.41

   temp. (K)  partition function   enthalpy   heat capacity  entropy
                                   cal/mol     cal/K/mol   cal/K/mol   J/K/mol
  10.00  VIB   1.00                    0.000      0.000     -0.005
         ROT   193.                   29.809      2.981     13.435
         INT   193.                   29.809      2.981     13.429
         TR   0.277E+25               49.681      4.968     21.322
         TOT                          79.4904     7.9490    34.7514   145.3999

       T/K    H(0)-H(T)+PV         H(T)/Eh          T*S/Eh         G(T)/Eh
   ------------------------------------------------------------------------
    298.15    0.546932E-02    0.218210E-01    0.319494E-01   -0.101283E-01
    120.00    0.165090E-02    0.180026E-01    0.105945E-01    0.740810E-02
    100.00    0.133324E-02    0.176850E-01    0.853958E-02    0.914538E-02
     80.00    0.103925E-02    0.173910E-01    0.656966E-02    0.108213E-01
     60.00    0.765962E-03    0.171177E-01    0.469176E-02    0.124259E-01
     40.00    0.507062E-03    0.168588E-01    0.291814E-02    0.139406E-01
     20.00    0.253352E-03    0.166051E-01    0.128323E-02    0.153218E-01
     10.00    0.126676E-03    0.164784E-01    0.553799E-03    0.159246E-01 (used)
   ------------------------------------------------------------------------

         :::::::::::::::::::::::::::::::::::::::::::::::::::::
         ::                  THERMODYNAMIC                  ::
         :::::::::::::::::::::::::::::::::::::::::::::::::::::
         :: total free energy         -10.183241330080 Eh   ::
         ::.................................................::
         :: total energy              -10.199165925730 Eh   ::
         :: zero point energy           0.016351718665 Eh   ::
         :: G(RRHO) w/o ZPVE           -0.000427123015 Eh   ::
         :: G(RRHO) contrib.            0.015924595650 Eh   ::
         :::::::::::::::::::::::::::::::::::::::::::::::::::::

           -------------------------------------------------
          | TOTAL ENERGY              -10.199165925730 Eh   |
          | TOTAL ENTHALPY            -10.182687531050 Eh   |
          | TOTAL FREE ENERGY         -10.183241330080 Eh   |
          | GRADIENT NORM               0.000165892067 Eh/Î± |
          | HOMO-LUMO GAP               1.136117474293 eV   |
           -------------------------------------------------

 * finished run on 2020/05/12 at 11:44:36.462
