   * xtb version 6.2.2 (9d81278992624c895f80dd42a50cac0aa55982e2) compiled by '@Darwin' on 04/03/2020
          program call               : xtb --input H2C2N1_1_S_1.input H2C2N1_1_S_1.xyz --ohess --molden --namespace H2C2N1_1_S_1 output.out
          number of atoms            :                     5
          number of electrons        :                    15
          charge                     :                     0
          spin                       :                   0.5

   ID    Z sym.   atoms
    1    6 C      1, 3
    2    7 N      2
    3    1 H      4, 5

          :  Hamiltonian                  GFN2-xTB          :
 * total energy  :    -7.9142604 Eh     change        0.2067972E-09 Eh
 * total energy  :    -7.9580803 Eh     change       -0.4381988E-01 Eh
 * total energy  :    -7.9665945 Eh     change       -0.8514240E-02 Eh
 * total energy  :    -7.9751513 Eh     change       -0.8556763E-02 Eh
 * total energy  :    -7.9796109 Eh     change       -0.4459656E-02 Eh
 * total energy  :    -7.9832595 Eh     change       -0.3648576E-02 Eh
 * total energy  :    -7.9845589 Eh     change       -0.1299341E-02 Eh
 * total energy  :    -7.9882048 Eh     change       -0.3645934E-02 Eh
 * total energy  :    -7.9886021 Eh     change       -0.3973257E-03 Eh
 * total energy  :    -7.9887206 Eh     change       -0.1184308E-03 Eh
 * total energy  :    -7.9887469 Eh     change       -0.2631488E-04 Eh
 * total energy  :    -7.9887631 Eh     change       -0.1625622E-04 Eh
 * total energy  :    -7.9887771 Eh     change       -0.1399004E-04 Eh
 * total energy  :    -7.9887816 Eh     change       -0.4515934E-05 Eh
   *** GEOMETRY OPTIMIZATION CONVERGED AFTER 14 ITERATIONS ***

 final structure:
================
5
 xtb: 6.2.2 (9d81278992624c895f80dd42a50cac0aa55982e2)
C        -0.50337442125281    0.28553954125981    0.02904275176216
N         0.82083972969340    0.24624125417460    0.09163050239554
C        -0.48526867282340   -1.03151837197388   -0.21972105594601
H        -1.08751641065497    1.16924798267538    0.16683750956130
H         1.25531977503779   -0.66951040613591   -0.06778970777300

          :  Hamiltonian                  GFN2-xTB          :
         :: gradient norm              0.000542022055 Eh/a0 ::
         :: HOMO-LUMO gap              2.716409923751 eV    ::
         :: SCC energy                -8.099733890138 Eh    ::
         :: -> dispersion             -0.001507476309 Eh    ::
         :: repulsion energy           0.110952238638 Eh    ::

    * Orbital Energies and Occupations

         #    Occupation            Energy/Eh            Energy/eV
      -------------------------------------------------------------
         1        2.0000           -0.6958492             -18.9350
         2        2.0000           -0.6032832             -16.4162
         3        2.0000           -0.5971865             -16.2503
         4        2.0000           -0.5262030             -14.3187
         5        2.0000           -0.5138176             -13.9817
         6        2.0000           -0.4583440             -12.4722
         7        2.0000           -0.4297847             -11.6950
         8        1.0000           -0.3655284              -9.9465 (HOMO)
         9                         -0.2657021              -7.2301 (LUMO)
        10                         -0.2288821              -6.2282
        11                          0.0586201               1.5951
        12                          0.1408504               3.8327
        13                          0.2715558               7.3894
        14                          0.6546741              17.8146
      -------------------------------------------------------------
                  HL-Gap            0.0998262 Eh            2.7164 eV

     #   Z        covCN         q      C6AA      Î±(0)
     1   6 C      2.817     0.118    25.389     8.256
     2   7 N      2.401    -0.232    26.207     7.602
     3   6 C      1.616    -0.172    37.012     9.899
     4   1 H      0.927     0.068     2.111     2.272
     5   1 H      0.863     0.218     1.019     1.581

Wiberg/Mayer (AO) data.
largest (>0.10) Wiberg bond orders for each atom
          total WBO             WBO to atom ...

molecular dipole:
                 x           y           z       tot (Debye)
 q only:        0.064       0.165       0.031
   full:       -0.031       0.424       0.074       1.097

 projected vibrational frequencies (cm-1)
eigval :       -0.00    -0.00     0.00     0.00     0.00     0.00
eigval :      484.93   529.97   669.99   875.38  1037.73  1270.45
eigval :     1564.59  3177.11  3180.94

   temp. (K)  partition function   enthalpy   heat capacity  entropy
                                   cal/mol     cal/K/mol   cal/K/mol   J/K/mol
  10.00  VIB   1.00                    0.000      0.000     -0.001
         ROT   45.5                   29.809      2.981     10.568
         INT   45.5                   29.809      2.981     10.567
         TR   0.151E+25               49.681      4.968     20.115
         TOT                          79.4904     7.9490    30.6816   128.3718

       T/K    H(0)-H(T)+PV         H(T)/Eh          T*S/Eh         G(T)/Eh
   ------------------------------------------------------------------------
    298.15    0.444798E-02    0.335882E-01    0.283004E-01    0.528782E-02
    120.00    0.153206E-02    0.306723E-01    0.965748E-02    0.210148E-01
    100.00    0.127022E-02    0.304104E-01    0.780937E-02    0.226011E-01
     80.00    0.101396E-02    0.301542E-01    0.601890E-02    0.241353E-01
     60.00    0.760083E-03    0.299003E-01    0.429515E-02    0.256052E-01
     40.00    0.506704E-03    0.296469E-01    0.265802E-02    0.269889E-01
     20.00    0.253352E-03    0.293936E-01    0.115345E-02    0.282401E-01
     10.00    0.126676E-03    0.292669E-01    0.488942E-03    0.287780E-01 (used)
   ------------------------------------------------------------------------

         :::::::::::::::::::::::::::::::::::::::::::::::::::::
         ::                  THERMODYNAMIC                  ::
         :::::::::::::::::::::::::::::::::::::::::::::::::::::
         :: total free energy          -7.960003673075 Eh   ::
         ::.................................................::
         :: total energy               -7.988781633283 Eh   ::
         :: zero point energy           0.029140226637 Eh   ::
         :: G(RRHO) w/o ZPVE           -0.000362266428 Eh   ::
         :: G(RRHO) contrib.            0.028777960208 Eh   ::
         :::::::::::::::::::::::::::::::::::::::::::::::::::::

           -------------------------------------------------
          | TOTAL ENERGY               -7.988781633283 Eh   |
          | TOTAL ENTHALPY             -7.959514730630 Eh   |
          | TOTAL FREE ENERGY          -7.960003673075 Eh   |
          | GRADIENT NORM               0.000542021703 Eh/Î± |
          | HOMO-LUMO GAP               2.716410043359 eV   |
           -------------------------------------------------

 * finished run on 2020/05/12 at 11:44:45.375
