   * xtb version 6.2.2 (9d81278992624c895f80dd42a50cac0aa55982e2) compiled by '@Darwin' on 04/03/2020
          program call               : xtb --input C4N1_46_S_1.input C4N1_46_S_1.xyz --ohess --molden --namespace C4N1_46_S_1 output.out
          number of atoms            :                     5
          number of electrons        :                    21
          charge                     :                     0
          spin                       :                   0.5

   ID    Z sym.   atoms
    1    6 C      1, 3-5
    2    7 N      2

          :  Hamiltonian                  GFN2-xTB          :
 * total energy  :   -10.9635640 Eh     change        0.5262422E-09 Eh
 * total energy  :   -10.9869241 Eh     change       -0.2336009E-01 Eh
 * total energy  :   -10.9996757 Eh     change       -0.1275166E-01 Eh
 * total energy  :   -11.0028308 Eh     change       -0.3155032E-02 Eh
 * total energy  :   -11.0247624 Eh     change       -0.2193160E-01 Eh
 * total energy  :   -11.0308717 Eh     change       -0.6109302E-02 Eh
 * total energy  :   -11.0342781 Eh     change       -0.3406443E-02 Eh
 * total energy  :   -11.0358837 Eh     change       -0.1605593E-02 Eh
 * total energy  :   -11.0369702 Eh     change       -0.1086508E-02 Eh
 * total energy  :   -11.0408066 Eh     change       -0.3836415E-02 Eh
 * total energy  :   -11.0706846 Eh     change       -0.3409816E-03 Eh
 * total energy  :   -11.0707204 Eh     change       -0.3577495E-04 Eh
 * total energy  :   -11.0707448 Eh     change       -0.2447073E-04 Eh
 * total energy  :   -11.0707781 Eh     change       -0.3331436E-04 Eh
 * total energy  :   -11.0708097 Eh     change       -0.3158060E-04 Eh
 * total energy  :   -11.0708511 Eh     change       -0.4140999E-04 Eh
 * total energy  :   -11.0708610 Eh     change       -0.9893068E-05 Eh
 * total energy  :   -11.0708755 Eh     change       -0.1444307E-04 Eh
 * total energy  :   -11.0708772 Eh     change       -0.1684196E-05 Eh
   *** GEOMETRY OPTIMIZATION CONVERGED AFTER 26 ITERATIONS ***

 final structure:
================
5
 xtb: 6.2.2 (9d81278992624c895f80dd42a50cac0aa55982e2)
C         0.44850980885362    0.98960886173011   -0.07414111742657
N        -0.39593871561199    0.15773612419255    0.81521546388257
C        -0.57579124042653    0.23931818434742   -0.74683532054904
C         0.89649638444156   -0.36727445659766    0.09044466161872
C        -0.37327623725666   -1.01938871367241   -0.08468368752568

          :  Hamiltonian                  GFN2-xTB          :
         :: gradient norm              0.000561037539 Eh/a0 ::
         :: HOMO-LUMO gap              2.494107164867 eV    ::
         :: SCC energy               -11.198671518012 Eh    ::
         :: -> dispersion             -0.002479442822 Eh    ::
         :: repulsion energy           0.127794346284 Eh    ::

    * Orbital Energies and Occupations

         #    Occupation            Energy/Eh            Energy/eV
      -------------------------------------------------------------
         1        2.0000           -0.7940928             -21.6084
         2        2.0000           -0.6840119             -18.6129
         3        2.0000           -0.6660538             -18.1242
         4        2.0000           -0.6417418             -17.4627
         5        2.0000           -0.5505610             -14.9815
         6        2.0000           -0.5401352             -14.6978
         7        2.0000           -0.5041237             -13.7179
         8        2.0000           -0.5015203             -13.6471
         9        2.0000           -0.4973364             -13.5332
        10        2.0000           -0.4770153             -12.9802
        11        1.0000           -0.4216856             -11.4746 (HOMO)
        12                         -0.3300287              -8.9805 (LUMO)
        13                         -0.2459293              -6.6921
        14                         -0.2383074              -6.4847
        15                         -0.0958623              -2.6085
        16                         -0.0619364              -1.6854
        17                          0.0805375               2.1915
        18                          0.0925501               2.5184
        19                          0.2319293               6.3111
        20                          0.4128106              11.2331
      -------------------------------------------------------------
                  HL-Gap            0.0916569 Eh            2.4941 eV

     #   Z        covCN         q      C6AA      Î±(0)
     1   6 C      3.044     0.026    27.371     8.581
     2   7 N      3.594    -0.083    22.853     7.100
     3   6 C      3.690     0.016    20.495     6.479
     4   6 C      3.691     0.015    20.513     6.481
     5   6 C      3.044     0.027    27.368     8.580

Wiberg/Mayer (AO) data.
largest (>0.10) Wiberg bond orders for each atom
          total WBO             WBO to atom ...

molecular dipole:
                 x           y           z       tot (Debye)
 q only:        0.074      -0.030      -0.156
   full:       -0.018       0.007       0.025       0.080

 projected vibrational frequencies (cm-1)
eigval :       -0.00    -0.00     0.00     0.00     0.00     0.00
eigval :      299.01   432.04   700.57   774.45  1040.33  1048.83
eigval :     1080.08  1323.71  1421.85

   temp. (K)  partition function   enthalpy   heat capacity  entropy
                                   cal/mol     cal/K/mol   cal/K/mol   J/K/mol
  10.00  VIB   1.00                    0.000      0.000     -0.002
         ROT   63.1                   29.809      2.981     11.216
         INT   63.1                   29.809      2.981     11.215
         TR   0.290E+25               49.681      4.968     21.419
         TOT                          79.4904     7.9490    32.6341   136.5410

       T/K    H(0)-H(T)+PV         H(T)/Eh          T*S/Eh         G(T)/Eh
   ------------------------------------------------------------------------
    298.15    0.478218E-02    0.232828E-01    0.297856E-01   -0.650281E-02
    120.00    0.157121E-02    0.200719E-01    0.100814E-01    0.999050E-02
    100.00    0.128959E-02    0.197902E-01    0.814466E-02    0.116456E-01
     80.00    0.102058E-02    0.195212E-01    0.627585E-02    0.132454E-01
     60.00    0.761168E-03    0.192618E-01    0.448320E-02    0.147786E-01
     40.00    0.506733E-03    0.190074E-01    0.278258E-02    0.162248E-01
     20.00    0.253352E-03    0.187540E-01    0.121569E-02    0.175383E-01
     10.00    0.126676E-03    0.186273E-01    0.520057E-03    0.181073E-01 (used)
   ------------------------------------------------------------------------

         :::::::::::::::::::::::::::::::::::::::::::::::::::::
         ::                  THERMODYNAMIC                  ::
         :::::::::::::::::::::::::::::::::::::::::::::::::::::
         :: total free energy         -11.052769879071 Eh   ::
         ::.................................................::
         :: total energy              -11.070877157899 Eh   ::
         :: zero point energy           0.018500659857 Eh   ::
         :: G(RRHO) w/o ZPVE           -0.000393381029 Eh   ::
         :: G(RRHO) contrib.            0.018107278828 Eh   ::
         :::::::::::::::::::::::::::::::::::::::::::::::::::::

           -------------------------------------------------
          | TOTAL ENERGY              -11.070877157899 Eh   |
          | TOTAL ENTHALPY            -11.052249822026 Eh   |
          | TOTAL FREE ENERGY         -11.052769879071 Eh   |
          | GRADIENT NORM               0.000562052007 Eh/Î± |
          | HOMO-LUMO GAP               2.494111092913 eV   |
           -------------------------------------------------

 * finished run on 2020/05/12 at 11:44:19.211
