   * xtb version 6.2.2 (9d81278992624c895f80dd42a50cac0aa55982e2) compiled by '@Darwin' on 04/03/2020
          program call               : xtb --input C4N1_56_S_1.input C4N1_56_S_1.xyz --ohess --molden --namespace C4N1_56_S_1 output.out
          number of atoms            :                     5
          number of electrons        :                    21
          charge                     :                     0
          spin                       :                   0.5

   ID    Z sym.   atoms
    1    6 C      1, 3-5
    2    7 N      2

          :  Hamiltonian                  GFN2-xTB          :
 * total energy  :   -11.0261045 Eh     change       -0.4299475E-08 Eh
 * total energy  :   -11.0463034 Eh     change       -0.2019889E-01 Eh
 * total energy  :   -11.0687589 Eh     change       -0.2245553E-01 Eh
 * total energy  :   -11.0704368 Eh     change       -0.1677874E-02 Eh
 * total energy  :   -11.0705712 Eh     change       -0.1344508E-03 Eh
 * total energy  :   -11.0706796 Eh     change       -0.1083940E-03 Eh
 * total energy  :   -11.0707547 Eh     change       -0.7508409E-04 Eh
 * total energy  :   -11.0708245 Eh     change       -0.6980938E-04 Eh
 * total energy  :   -11.0708664 Eh     change       -0.4187469E-04 Eh
 * total energy  :   -11.0708771 Eh     change       -0.1067831E-04 Eh
 * total energy  :   -11.0708782 Eh     change       -0.1158467E-05 Eh
   *** GEOMETRY OPTIMIZATION CONVERGED AFTER 11 ITERATIONS ***

 final structure:
================
5
 xtb: 6.2.2 (9d81278992624c895f80dd42a50cac0aa55982e2)
C        -1.08837461357887   -0.03226081883894    0.02197541306616
N         0.04311359615204    0.80785994736820   -0.43700397426210
C         1.07995254160649   -0.12557066570925    0.06339953576158
C        -0.01405002500898    0.10280973536058    0.96702098602305
C        -0.02064049917067   -0.75283819818059   -0.61539096058869

          :  Hamiltonian                  GFN2-xTB          :
         :: gradient norm              0.000554877887 Eh/a0 ::
         :: HOMO-LUMO gap              2.491446704778 eV    ::
         :: SCC energy               -11.198912488498 Eh    ::
         :: -> dispersion             -0.002479421634 Eh    ::
         :: repulsion energy           0.128034245052 Eh    ::

    * Orbital Energies and Occupations

         #    Occupation            Energy/Eh            Energy/eV
      -------------------------------------------------------------
         1        2.0000           -0.7941254             -21.6093
         2        2.0000           -0.6840595             -18.6142
         3        2.0000           -0.6660783             -18.1249
         4        2.0000           -0.6416917             -17.4613
         5        2.0000           -0.5506028             -14.9827
         6        2.0000           -0.5399803             -14.6936
         7        2.0000           -0.5041215             -13.7178
         8        2.0000           -0.5014710             -13.6457
         9        2.0000           -0.4972367             -13.5305
        10        2.0000           -0.4769981             -12.9798
        11        1.0000           -0.4216548             -11.4738 (HOMO)
        12                         -0.3300959              -8.9824 (LUMO)
        13                         -0.2454854              -6.6800
        14                         -0.2377714              -6.4701
        15                         -0.0961918              -2.6175
        16                         -0.0615890              -1.6759
        17                          0.0811278               2.2076
        18                          0.0932670               2.5379
        19                          0.2324565               6.3255
        20                          0.4134307              11.2500
      -------------------------------------------------------------
                  HL-Gap            0.0915589 Eh            2.4914 eV

     #   Z        covCN         q      C6AA      Î±(0)
     1   6 C      3.043     0.026    27.373     8.581
     2   7 N      3.594    -0.083    22.856     7.101
     3   6 C      3.043     0.026    27.374     8.581
     4   6 C      3.691     0.015    20.498     6.479
     5   6 C      3.691     0.015    20.498     6.479

Wiberg/Mayer (AO) data.
largest (>0.10) Wiberg bond orders for each atom
          total WBO             WBO to atom ...

molecular dipole:
                 x           y           z       tot (Debye)
 q only:       -0.008      -0.154       0.083
   full:        0.001       0.027      -0.015       0.078

 projected vibrational frequencies (cm-1)
eigval :       -0.00    -0.00    -0.00     0.00     0.00     0.00
eigval :      298.70   432.49   699.91   774.93  1041.32  1050.21
eigval :     1081.41  1323.97  1422.68

   temp. (K)  partition function   enthalpy   heat capacity  entropy
                                   cal/mol     cal/K/mol   cal/K/mol   J/K/mol
  10.00  VIB   1.00                    0.000      0.000     -0.002
         ROT   63.0                   29.809      2.981     11.215
         INT   63.0                   29.809      2.981     11.213
         TR   0.290E+25               49.681      4.968     21.419
         TOT                          79.4904     7.9490    32.6329   136.5359

       T/K    H(0)-H(T)+PV         H(T)/Eh          T*S/Eh         G(T)/Eh
   ------------------------------------------------------------------------
    298.15    0.478181E-02    0.232933E-01    0.297848E-01   -0.649146E-02
    120.00    0.157127E-02    0.200828E-01    0.100812E-01    0.100016E-01
    100.00    0.128963E-02    0.198012E-01    0.814452E-02    0.116566E-01
     80.00    0.102060E-02    0.195321E-01    0.627572E-02    0.132564E-01
     60.00    0.761174E-03    0.192727E-01    0.448309E-02    0.147896E-01
     40.00    0.506734E-03    0.190183E-01    0.278250E-02    0.162358E-01
     20.00    0.253352E-03    0.187649E-01    0.121565E-02    0.175492E-01
     10.00    0.126676E-03    0.186382E-01    0.520038E-03    0.181182E-01 (used)
   ------------------------------------------------------------------------

         :::::::::::::::::::::::::::::::::::::::::::::::::::::
         ::                  THERMODYNAMIC                  ::
         :::::::::::::::::::::::::::::::::::::::::::::::::::::
         :: total free energy         -11.052760074486 Eh   ::
         ::.................................................::
         :: total energy              -11.070878229565 Eh   ::
         :: zero point energy           0.018511516975 Eh   ::
         :: G(RRHO) w/o ZPVE           -0.000393361896 Eh   ::
         :: G(RRHO) contrib.            0.018118155080 Eh   ::
         :::::::::::::::::::::::::::::::::::::::::::::::::::::

           -------------------------------------------------
          | TOTAL ENERGY              -11.070878229565 Eh   |
          | TOTAL ENTHALPY            -11.052240036574 Eh   |
          | TOTAL FREE ENERGY         -11.052760074486 Eh   |
          | GRADIENT NORM               0.000554700822 Eh/Î± |
          | HOMO-LUMO GAP               2.491445023971 eV   |
           -------------------------------------------------

 * finished run on 2020/05/12 at 11:44:23.627
