   * xtb version 6.2.2 (9d81278992624c895f80dd42a50cac0aa55982e2) compiled by '@Darwin' on 04/03/2020
          program call               : xtb --input C4N1_40_S_1.input C4N1_40_S_1.xyz --ohess --molden --namespace C4N1_40_S_1 output.out
          number of atoms            :                     5
          number of electrons        :                    21
          charge                     :                     0
          spin                       :                   0.5

   ID    Z sym.   atoms
    1    6 C      1, 3-5
    2    7 N      2

          :  Hamiltonian                  GFN2-xTB          :
 * total energy  :   -10.9814164 Eh     change        0.1147180E-08 Eh
 * total energy  :   -11.0100363 Eh     change       -0.2861988E-01 Eh
 * total energy  :   -11.0206486 Eh     change       -0.1061227E-01 Eh
 * total energy  :   -11.0229135 Eh     change       -0.2264868E-02 Eh
 * total energy  :   -11.0255320 Eh     change       -0.2618512E-02 Eh
 * total energy  :   -11.0280235 Eh     change       -0.2491478E-02 Eh
 * total energy  :   -11.0314065 Eh     change       -0.3383037E-02 Eh
 * total energy  :   -11.0349353 Eh     change       -0.3528828E-02 Eh
 * total energy  :   -11.0354900 Eh     change       -0.5546828E-03 Eh
 * total energy  :   -11.0360670 Eh     change       -0.5769739E-03 Eh
 * total energy  :   -11.0488787 Eh     change       -0.2748349E-03 Eh
 * total energy  :   -11.0489948 Eh     change       -0.1160756E-03 Eh
 * total energy  :   -11.0491471 Eh     change       -0.1523202E-03 Eh
 * total energy  :   -11.0492471 Eh     change       -0.9997060E-04 Eh
 * total energy  :   -11.0493269 Eh     change       -0.7976120E-04 Eh
 * total energy  :   -11.0493490 Eh     change       -0.2214230E-04 Eh
 * total energy  :   -11.0493551 Eh     change       -0.6145380E-05 Eh
 * total energy  :   -11.0493604 Eh     change       -0.5228567E-05 Eh
 * total energy  :   -11.0493617 Eh     change       -0.1295541E-05 Eh
   *** GEOMETRY OPTIMIZATION CONVERGED AFTER 33 ITERATIONS ***

 final structure:
================
5
 xtb: 6.2.2 (9d81278992624c895f80dd42a50cac0aa55982e2)
C         1.30310386827277   -0.38654574780245   -0.00586168688008
N         0.01584149233299   -0.73178604754498    0.19930847597647
C        -0.65580186695504    0.67077889110016   -0.44604288182826
C        -1.28658235675346   -0.38283659719974    0.21458286025761
C         0.62343986310274    0.83038850144700    0.03801223247427

          :  Hamiltonian                  GFN2-xTB          :
         :: gradient norm              0.000304216370 Eh/a0 ::
         :: HOMO-LUMO gap              1.790507524551 eV    ::
         :: SCC energy               -11.203120173424 Eh    ::
         :: -> dispersion             -0.002895461143 Eh    ::
         :: repulsion energy           0.153758473779 Eh    ::

    * Orbital Energies and Occupations

         #    Occupation            Energy/Eh            Energy/eV
      -------------------------------------------------------------
         1        2.0000           -0.7703758             -20.9630
         2        2.0000           -0.7080058             -19.2658
         3        2.0000           -0.6600745             -17.9615
         4        2.0000           -0.6012542             -16.3610
         5        2.0000           -0.5871107             -15.9761
         6        2.0000           -0.5760924             -15.6763
         7        2.0000           -0.5329167             -14.5014
         8        2.0000           -0.4629568             -12.5977
         9        2.0000           -0.4616573             -12.5623
        10        2.0000           -0.4470327             -12.1644
        11        1.0000           -0.4084626             -11.1148 (HOMO)
        12                         -0.3426626              -9.3243 (LUMO)
        13                         -0.2951136              -8.0305
        14                         -0.2756088              -7.4997
        15                         -0.2339541              -6.3662
        16                         -0.0393201              -1.0700
        17                          0.1852703               5.0415
        18                          0.3031457               8.2490
        19                          0.3441876               9.3658
        20                          0.5593132              15.2197
      -------------------------------------------------------------
                  HL-Gap            0.0658000 Eh            1.7905 eV

     #   Z        covCN         q      C6AA      Î±(0)
     1   6 C      1.966    -0.070    32.975     9.273
     2   7 N      3.503     0.065    20.096     6.658
     3   6 C      2.877     0.038    27.156     8.543
     4   6 C      1.966    -0.070    32.977     9.274
     5   6 C      2.877     0.037    27.159     8.543

Wiberg/Mayer (AO) data.
largest (>0.10) Wiberg bond orders for each atom
          total WBO             WBO to atom ...

molecular dipole:
                 x           y           z       tot (Debye)
 q only:       -0.003       0.118      -0.032
   full:       -0.004       0.210      -0.057       0.554

 projected vibrational frequencies (cm-1)
eigval :       -0.00    -0.00     0.00     0.00     0.00     0.00
eigval :      213.12   422.74   448.95   631.09   832.36   882.77
eigval :     1218.46  1275.23  1429.50

   temp. (K)  partition function   enthalpy   heat capacity  entropy
                                   cal/mol     cal/K/mol   cal/K/mol   J/K/mol
  10.00  VIB   1.00                    0.000      0.000     -0.005
         ROT   78.6                   29.809      2.981     11.653
         INT   78.6                   29.809      2.981     11.648
         TR   0.290E+25               49.681      4.968     21.419
         TOT                          79.4904     7.9490    33.0677   138.3551

       T/K    H(0)-H(T)+PV         H(T)/Eh          T*S/Eh         G(T)/Eh
   ------------------------------------------------------------------------
    298.15    0.517527E-02    0.219294E-01    0.306774E-01   -0.874798E-02
    120.00    0.162530E-02    0.183794E-01    0.102414E-01    0.813808E-02
    100.00    0.132220E-02    0.180763E-01    0.825847E-02    0.981786E-02
     80.00    0.103653E-02    0.177907E-01    0.635211E-02    0.114386E-01
     60.00    0.766070E-03    0.175202E-01    0.453096E-02    0.129892E-01
     40.00    0.507160E-03    0.172613E-01    0.281091E-02    0.144504E-01
     20.00    0.253352E-03    0.170075E-01    0.122957E-02    0.157779E-01
     10.00    0.126676E-03    0.168808E-01    0.526967E-03    0.163538E-01 (used)
   ------------------------------------------------------------------------

         :::::::::::::::::::::::::::::::::::::::::::::::::::::
         ::                  THERMODYNAMIC                  ::
         :::::::::::::::::::::::::::::::::::::::::::::::::::::
         :: total free energy         -11.033007828527 Eh   ::
         ::.................................................::
         :: total energy              -11.049361674021 Eh   ::
         :: zero point energy           0.016754136394 Eh   ::
         :: G(RRHO) w/o ZPVE           -0.000400290900 Eh   ::
         :: G(RRHO) contrib.            0.016353845494 Eh   ::
         :::::::::::::::::::::::::::::::::::::::::::::::::::::

           -------------------------------------------------
          | TOTAL ENERGY              -11.049361674021 Eh   |
          | TOTAL ENTHALPY            -11.032480861612 Eh   |
          | TOTAL FREE ENERGY         -11.033007828527 Eh   |
          | GRADIENT NORM               0.000303982259 Eh/Î± |
          | HOMO-LUMO GAP               1.790508966014 eV   |
           -------------------------------------------------

 * finished run on 2020/05/12 at 11:44:16.256
