   * xtb version 6.2.2 (9d81278992624c895f80dd42a50cac0aa55982e2) compiled by '@Darwin' on 04/03/2020
          program call               : xtb --input C5_18_S_2.input C5_18_S_2.xyz --ohess --molden --namespace C5_18_S_2 output.out
          number of atoms            :                     5
          number of electrons        :                    20
          charge                     :                     0
          spin                       :                   1.0

   ID    Z sym.   atoms
    1    6 C      1-5

          :  Hamiltonian                  GFN2-xTB          :
 * total energy  :   -10.1185759 Eh     change       -0.1178929E-08 Eh
 * total energy  :   -10.1376500 Eh     change       -0.1907408E-01 Eh
 * total energy  :   -10.1593316 Eh     change       -0.2168161E-01 Eh
 * total energy  :   -10.1659674 Eh     change       -0.6635839E-02 Eh
 * total energy  :   -10.1694450 Eh     change       -0.3477611E-02 Eh
 * total energy  :   -10.1698313 Eh     change       -0.3862971E-03 Eh
 * total energy  :   -10.1699296 Eh     change       -0.9827265E-04 Eh
 * total energy  :   -10.1699515 Eh     change       -0.2187399E-04 Eh
 * total energy  :   -10.1699669 Eh     change       -0.1540293E-04 Eh
 * total energy  :   -10.1274636 Eh     change        0.4250323E-01 Eh
 * total energy  :   -10.1699671 Eh     change       -0.4250344E-01 Eh
 * total energy  :   -10.1705452 Eh     change       -0.5781426E-03 Eh
 * total energy  :   -10.1710079 Eh     change       -0.4627217E-03 Eh
 * total energy  :   -10.1714325 Eh     change       -0.4245728E-03 Eh
 * total energy  :   -10.1726989 Eh     change       -0.1266405E-02 Eh
 * total energy  :   -10.1737392 Eh     change       -0.1040241E-02 Eh
 * total energy  :   -10.1739402 Eh     change       -0.2009967E-03 Eh
 * total energy  :   -10.1740034 Eh     change       -0.6329384E-04 Eh
 * total energy  :   -10.1740035 Eh     change       -0.5030354E-07 Eh
   *** GEOMETRY OPTIMIZATION CONVERGED AFTER 19 ITERATIONS ***

 final structure:
================
5
 xtb: 6.2.2 (9d81278992624c895f80dd42a50cac0aa55982e2)
C         1.25778988204378   -0.00085234701198   -0.00725690576698
C         0.19187078810145    0.90287203875260    0.02838866697446
C        -0.82342430480362    0.18048896715653   -0.71080835587850
C        -0.81665477608675   -0.17939522615149    0.71922347335518
C         0.19041841074514   -0.90311343274566   -0.02954687868416

          :  Hamiltonian                  GFN2-xTB          :
         :: gradient norm              0.000099882875 Eh/a0 ::
         :: HOMO-LUMO gap              1.669746586318 eV    ::
         :: SCC energy               -10.318870029962 Eh    ::
         :: -> dispersion             -0.002557956688 Eh    ::
         :: repulsion energy           0.144866512896 Eh    ::

    * Orbital Energies and Occupations

         #    Occupation            Energy/Eh            Energy/eV
      -------------------------------------------------------------
         1        2.0000           -0.7558460             -20.5676
         2        2.0000           -0.6701727             -18.2363
         3        2.0000           -0.6327042             -17.2168
         4        2.0000           -0.6015702             -16.3696
         5        2.0000           -0.5532536             -15.0548
         6        2.0000           -0.5240075             -14.2590
         7        2.0000           -0.4814407             -13.1007
         8        2.0000           -0.4694077             -12.7732
         9        2.0000           -0.4615982             -12.5607
        10        1.0000           -0.4256355             -11.5821
        11        1.0000           -0.4041599             -10.9978 (HOMO)
        12                         -0.3427979              -9.3280 (LUMO)
        13                         -0.3352199              -9.1218
        14                         -0.1646764              -4.4811
        15                         -0.1262853              -3.4364
        16                          0.0166103               0.4520
        17                          0.1494800               4.0676
        18                          0.1601175               4.3570
        19                          0.2793548               7.6016
        20                          0.4566735              12.4267
      -------------------------------------------------------------
                  HL-Gap            0.0613620 Eh            1.6697 eV

     #   Z        covCN         q      C6AA      Î±(0)
     1   6 C      2.232    -0.010    30.498     8.944
     2   6 C      3.746     0.036    20.039     6.385
     3   6 C      3.050    -0.031    28.718     8.789
     4   6 C      3.049    -0.031    28.716     8.789
     5   6 C      3.746     0.036    20.038     6.385

Wiberg/Mayer (AO) data.
largest (>0.10) Wiberg bond orders for each atom
          total WBO             WBO to atom ...

molecular dipole:
                 x           y           z       tot (Debye)
 q only:        0.097      -0.000      -0.000
   full:        0.171      -0.001      -0.000       0.434

 projected vibrational frequencies (cm-1)
eigval :       -0.00    -0.00    -0.00     0.00     0.00     0.00
eigval :     -218.59   488.13   574.87   734.52   859.82   953.41
eigval :     1047.64  1360.84  1407.11

   temp. (K)  partition function   enthalpy   heat capacity  entropy
                                   cal/mol     cal/K/mol   cal/K/mol   J/K/mol
  10.00  VIB   1.00                    0.000      0.000     -0.000
         ROT   69.9                   29.809      2.981     11.422
         INT   69.9                   29.809      2.981     11.421
         TR   0.277E+25               49.681      4.968     21.322
         TOT                          79.4904     7.9490    32.7434   136.9983

       T/K    H(0)-H(T)+PV         H(T)/Eh          T*S/Eh         G(T)/Eh
   ------------------------------------------------------------------------
    298.15    0.443720E-02    0.213556E-01    0.292522E-01   -0.789653E-02
    120.00    0.152988E-02    0.184483E-01    0.100492E-01    0.839913E-02
    100.00    0.126952E-02    0.181880E-01    0.813714E-02    0.100508E-01
     80.00    0.101384E-02    0.179323E-01    0.628161E-02    0.116507E-01
     60.00    0.760077E-03    0.176785E-01    0.449228E-02    0.131863E-01
     40.00    0.506704E-03    0.174252E-01    0.278944E-02    0.146357E-01
     20.00    0.253352E-03    0.171718E-01    0.121916E-02    0.159526E-01
     10.00    0.126676E-03    0.170451E-01    0.521799E-03    0.165233E-01 (used)
   ------------------------------------------------------------------------

         :::::::::::::::::::::::::::::::::::::::::::::::::::::
         ::                  THERMODYNAMIC                  ::
         :::::::::::::::::::::::::::::::::::::::::::::::::::::
         :: total free energy         -10.157480168848 Eh   ::
         ::.................................................::
         :: total energy              -10.174003496876 Eh   ::
         :: zero point energy           0.016918451119 Eh   ::
         :: G(RRHO) w/o ZPVE           -0.000395123090 Eh   ::
         :: G(RRHO) contrib.            0.016523328028 Eh   ::
         :::::::::::::::::::::::::::::::::::::::::::::::::::::

           -------------------------------------------------
          | TOTAL ENERGY              -10.174003496876 Eh   |
          | TOTAL ENTHALPY            -10.156958369742 Eh   |
          | TOTAL FREE ENERGY         -10.157480168848 Eh   |
          | GRADIENT NORM               0.000099921200 Eh/Î± |
          | HOMO-LUMO GAP               1.669746210127 eV   |
           -------------------------------------------------

 * finished run on 2020/05/12 at 11:44:39.670
