   * xtb version 6.2.2 (9d81278992624c895f80dd42a50cac0aa55982e2) compiled by '@Darwin' on 04/03/2020
          program call               : xtb --input C4N1_27_S_1.input C4N1_27_S_1.xyz --ohess --molden --namespace C4N1_27_S_1 output.out
          number of atoms            :                     5
          number of electrons        :                    21
          charge                     :                     0
          spin                       :                   0.5

   ID    Z sym.   atoms
    1    6 C      1, 2, 4, 5
    2    7 N      3

          :  Hamiltonian                  GFN2-xTB          :
 * total energy  :   -10.9346622 Eh     change       -0.1501430E-09 Eh
 * total energy  :   -10.9706185 Eh     change       -0.3595629E-01 Eh
 * total energy  :   -11.0168193 Eh     change       -0.4620078E-01 Eh
 * total energy  :   -11.0379449 Eh     change       -0.2112559E-01 Eh
 * total energy  :   -11.0486307 Eh     change       -0.1068584E-01 Eh
 * total energy  :   -11.0557296 Eh     change       -0.7098821E-02 Eh
 * total energy  :   -11.0473004 Eh     change        0.8429143E-02 Eh
 * total energy  :   -11.0257208 Eh     change        0.2157958E-01 Eh
 * total energy  :   -11.0379705 Eh     change       -0.1224963E-01 Eh
 * total energy  :   -11.0632549 Eh     change       -0.2528448E-01 Eh
 * total energy  :   -11.0748039 Eh     change       -0.2813486E-03 Eh
 * total energy  :   -11.0748971 Eh     change       -0.9320700E-04 Eh
 * total energy  :   -11.0750727 Eh     change       -0.1756358E-03 Eh
 * total energy  :   -11.0753084 Eh     change       -0.2356667E-03 Eh
 * total energy  :   -11.0739143 Eh     change        0.1394107E-02 Eh
 * total energy  :   -11.0761615 Eh     change       -0.2247234E-02 Eh
 * total energy  :   -11.0761980 Eh     change       -0.3651156E-04 Eh
 * total energy  :   -11.0762033 Eh     change       -0.5313206E-05 Eh
 * total energy  :   -11.0762057 Eh     change       -0.2379939E-05 Eh
   *** GEOMETRY OPTIMIZATION CONVERGED AFTER 26 ITERATIONS ***

 final structure:
================
5
 xtb: 6.2.2 (9d81278992624c895f80dd42a50cac0aa55982e2)
C         1.95145267796641   -0.00982032480313   -0.07477635500587
C         0.66780479562353   -0.00800522650492   -0.19861249009165
N        -1.50283777497910    0.01675179659164    0.39976755356598
C        -0.55496237406309    0.81245685468026   -0.08500535090943
C        -0.56145732454775   -0.81138309996385   -0.04137435755904

          :  Hamiltonian                  GFN2-xTB          :
         :: gradient norm              0.000225866261 Eh/a0 ::
         :: HOMO-LUMO gap              1.213943775139 eV    ::
         :: SCC energy               -11.240509836429 Eh    ::
         :: -> dispersion             -0.002847604720 Eh    ::
         :: repulsion energy           0.164304141680 Eh    ::

    * Orbital Energies and Occupations

         #    Occupation            Energy/Eh            Energy/eV
      -------------------------------------------------------------
         1        2.0000           -0.7713891             -20.9906
         2        2.0000           -0.6930005             -18.8575
         3        2.0000           -0.6453773             -17.5616
         4        2.0000           -0.6429075             -17.4944
         5        2.0000           -0.5967135             -16.2374
         6        2.0000           -0.5740979             -15.6220
         7        2.0000           -0.5023188             -13.6688
         8        2.0000           -0.4850883             -13.1999
         9        2.0000           -0.4729070             -12.8685
        10        2.0000           -0.4495960             -12.2341
        11        1.0000           -0.4203564             -11.4385 (HOMO)
        12                         -0.3757449             -10.2245 (LUMO)
        13                         -0.3432697              -9.3408
        14                         -0.2799871              -7.6188
        15                         -0.2091296              -5.6907
        16                          0.0796856               2.1684
        17                          0.1326837               3.6105
        18                          0.1843157               5.0155
        19                          0.2763102               7.5188
        20                          0.7500670              20.4104
      -------------------------------------------------------------
                  HL-Gap            0.0446115 Eh            1.2139 eV

     #   Z        covCN         q      C6AA      Î±(0)
     1   6 C      0.981    -0.126    39.974    10.620
     2   6 C      2.981     0.087    26.061     8.374
     3   7 N      1.864    -0.097    23.895     7.246
     4   6 C      2.847     0.068    26.473     8.433
     5   6 C      2.847     0.068    26.473     8.433

Wiberg/Mayer (AO) data.
largest (>0.10) Wiberg bond orders for each atom
          total WBO             WBO to atom ...

molecular dipole:
                 x           y           z       tot (Debye)
 q only:       -0.222      -0.002      -0.104
   full:       -0.445      -0.004      -0.210       1.250

 projected vibrational frequencies (cm-1)
eigval :       -0.00    -0.00    -0.00    -0.00     0.00     0.00
eigval :      191.45   208.01   454.27   591.22   669.96   802.70
eigval :     1050.99  1539.31  1755.45

   temp. (K)  partition function   enthalpy   heat capacity  entropy
                                   cal/mol     cal/K/mol   cal/K/mol   J/K/mol
  10.00  VIB   1.00                    0.000      0.000     -0.010
         ROT   195.                   29.809      2.981     13.463
         INT   195.                   29.809      2.981     13.453
         TR   0.290E+25               49.681      4.968     21.419
         TOT                          79.4904     7.9490    34.8721   145.9047

       T/K    H(0)-H(T)+PV         H(T)/Eh          T*S/Eh         G(T)/Eh
   ------------------------------------------------------------------------
    298.15    0.556352E-02    0.221106E-01    0.323200E-01   -0.102094E-01
    120.00    0.171558E-02    0.182627E-01    0.107184E-01    0.754434E-02
    100.00    0.137987E-02    0.179270E-01    0.862632E-02    0.930067E-02
     80.00    0.106592E-02    0.176130E-01    0.662125E-02    0.109918E-01
     60.00    0.775543E-03    0.173227E-01    0.471580E-02    0.126069E-01
     40.00    0.508130E-03    0.170552E-01    0.292745E-02    0.141278E-01
     20.00    0.253353E-03    0.168005E-01    0.128718E-02    0.155133E-01
     10.00    0.126676E-03    0.166738E-01    0.555722E-03    0.161181E-01 (used)
   ------------------------------------------------------------------------

         :::::::::::::::::::::::::::::::::::::::::::::::::::::
         ::                  THERMODYNAMIC                  ::
         :::::::::::::::::::::::::::::::::::::::::::::::::::::
         :: total free energy         -11.060087631742 Eh   ::
         ::.................................................::
         :: total energy              -11.076205704829 Eh   ::
         :: zero point energy           0.016547118717 Eh   ::
         :: G(RRHO) w/o ZPVE           -0.000429045630 Eh   ::
         :: G(RRHO) contrib.            0.016118073087 Eh   ::
         :::::::::::::::::::::::::::::::::::::::::::::::::::::

           -------------------------------------------------
          | TOTAL ENERGY              -11.076205704829 Eh   |
          | TOTAL ENTHALPY            -11.059531910097 Eh   |
          | TOTAL FREE ENERGY         -11.060087631742 Eh   |
          | GRADIENT NORM               0.000225096122 Eh/Î± |
          | HOMO-LUMO GAP               1.213940614192 eV   |
           -------------------------------------------------

 * finished run on 2020/05/12 at 11:44:10.121
