   * xtb version 6.2.2 (9d81278992624c895f80dd42a50cac0aa55982e2) compiled by '@Darwin' on 04/03/2020
          program call               : xtb --input C4N1_8_S_1.input C4N1_8_S_1.xyz --ohess --molden --namespace C4N1_8_S_1 output.out
          number of atoms            :                     5
          number of electrons        :                    21
          charge                     :                     0
          spin                       :                   0.5

   ID    Z sym.   atoms
    1    6 C      1-3, 5
    2    7 N      4

          :  Hamiltonian                  GFN2-xTB          :
 * total energy  :   -10.9096908 Eh     change       -0.1496440E-08 Eh
 * total energy  :   -11.0736067 Eh     change       -0.1639160E+00 Eh
 * total energy  :   -11.0902746 Eh     change       -0.1666781E-01 Eh
 * total energy  :   -11.1259654 Eh     change       -0.3569083E-01 Eh
 * total energy  :   -11.1268917 Eh     change       -0.9263600E-03 Eh
 * total energy  :   -11.1504008 Eh     change       -0.2350901E-01 Eh
 * total energy  :   -11.1484311 Eh     change        0.1969662E-02 Eh
 * total energy  :   -11.1623338 Eh     change       -0.1390269E-01 Eh
 * total energy  :   -11.1650035 Eh     change       -0.2669700E-02 Eh
 * total energy  :   -11.1628449 Eh     change        0.2158580E-02 Eh
 * total energy  :   -11.1826225 Eh     change       -0.1169915E-03 Eh
 * total energy  :   -11.1828588 Eh     change       -0.2363099E-03 Eh
 * total energy  :   -11.1830774 Eh     change       -0.2185426E-03 Eh
 * total energy  :   -11.1830469 Eh     change        0.3050268E-04 Eh
 * total energy  :   -11.1831371 Eh     change       -0.9029267E-04 Eh
 * total energy  :   -11.1831744 Eh     change       -0.3728443E-04 Eh
 * total energy  :   -11.1831806 Eh     change       -0.6154372E-05 Eh
 * total energy  :   -11.1831835 Eh     change       -0.2958994E-05 Eh
 * total energy  :   -11.1831856 Eh     change       -0.2056141E-05 Eh
   *** GEOMETRY OPTIMIZATION CONVERGED AFTER 31 ITERATIONS ***

 final structure:
================
5
 xtb: 6.2.2 (9d81278992624c895f80dd42a50cac0aa55982e2)
C        -1.32991546239409   -0.07027687473589    0.00764577116860
C        -0.00124615975558   -0.00547985236436    0.00091474794768
C         1.26346394143541    0.06687032744375   -0.00744230498361
N        -2.49123761408738   -0.12488476959642    0.01099307745935
C         2.55893529480162    0.13377116925287   -0.01211129159202

          :  Hamiltonian                  GFN2-xTB          :
         :: gradient norm              0.000813374593 Eh/a0 ::
         :: HOMO-LUMO gap              0.000010541014 eV    ::
         :: SCC energy               -11.457036577166 Eh    ::
         :: -> dispersion             -0.002572229277 Eh    ::
         :: repulsion energy           0.273852186456 Eh    ::

    * Orbital Energies and Occupations

         #    Occupation            Energy/Eh            Energy/eV
      -------------------------------------------------------------
         1        2.0000           -0.6935446             -18.8723
         2        2.0000           -0.6875586             -18.7094
         3        2.0000           -0.6657806             -18.1168
         4        2.0000           -0.6190149             -16.8443
         5        2.0000           -0.5517875             -15.0149
         6        2.0000           -0.5517869             -15.0149
         7        2.0000           -0.4995109             -13.5924
         8        2.0000           -0.4995101             -13.5924
         9        2.0000           -0.4769282             -12.9779
        10        2.0000           -0.4550311             -12.3820
        11        0.5001           -0.4009701             -10.9110 (HOMO)
        12        0.4999           -0.4009697             -10.9109 (LUMO)
        13                         -0.2576203              -7.0102
        14                         -0.2576179              -7.0101
        15                         -0.1248640              -3.3977
        16                         -0.1248519              -3.3974
        17                          0.0591258               1.6089
        18                          0.4387185              11.9381
        19                          0.9984684              27.1697
        20                          1.4157977              38.5258
      -------------------------------------------------------------
                  HL-Gap            0.0000004 Eh            0.0000 eV

     #   Z        covCN         q      C6AA      Î±(0)
     1   6 C      1.892     0.140    27.713     8.502
     2   6 C      1.964     0.058    29.604     8.787
     3   6 C      1.962     0.068    29.354     8.749
     4   7 N      0.912    -0.156    24.362     7.138
     5   6 C      0.982    -0.110    39.436    10.548

Wiberg/Mayer (AO) data.
largest (>0.10) Wiberg bond orders for each atom
          total WBO             WBO to atom ...

molecular dipole:
                 x           y           z       tot (Debye)
 q only:        0.012      -0.002       0.000
   full:       -0.052      -0.008       0.001       0.135

 projected vibrational frequencies (cm-1)
eigval :       -0.00    -0.00     0.00     0.00     0.00     0.00
eigval :      113.07   218.47   271.55   458.85   466.12   781.86
eigval :     1511.16  1956.41  2178.13

   temp. (K)  partition function   enthalpy   heat capacity  entropy
                                   cal/mol     cal/K/mol   cal/K/mol   J/K/mol
  10.00  VIB   1.00                    0.000      0.000     -0.030
         ROT   2.56                   29.809      2.981      4.852
         INT   2.56                   29.809      2.981      4.823
         TR   0.290E+25               49.681      4.968     21.419
         TOT                          79.4904     7.9491    26.2423   109.7976

       T/K    H(0)-H(T)+PV         H(T)/Eh          T*S/Eh         G(T)/Eh
   ------------------------------------------------------------------------
    298.15    0.607236E-02    0.241966E-01    0.293449E-01   -0.514830E-02
    120.00    0.184371E-02    0.199679E-01    0.928636E-02    0.106816E-01
    100.00    0.146855E-02    0.195928E-01    0.739779E-02    0.121950E-01
     80.00    0.112143E-02    0.192456E-01    0.560945E-02    0.136362E-01
     60.00    0.803945E-03    0.189282E-01    0.393399E-02    0.149942E-01
     40.00    0.516139E-03    0.186404E-01    0.238988E-02    0.162505E-01
     20.00    0.253503E-03    0.183777E-01    0.101301E-02    0.173647E-01
     10.00    0.126676E-03    0.182509E-01    0.418197E-03    0.178327E-01 (used)
   ------------------------------------------------------------------------

         :::::::::::::::::::::::::::::::::::::::::::::::::::::
         ::                  THERMODYNAMIC                  ::
         :::::::::::::::::::::::::::::::::::::::::::::::::::::
         :: total free energy         -11.165352903921 Eh   ::
         ::.................................................::
         :: total energy              -11.183185602889 Eh   ::
         :: zero point energy           0.018124219965 Eh   ::
         :: G(RRHO) w/o ZPVE           -0.000291520997 Eh   ::
         :: G(RRHO) contrib.            0.017832698968 Eh   ::
         :::::::::::::::::::::::::::::::::::::::::::::::::::::

           -------------------------------------------------
          | TOTAL ENERGY              -11.183185602889 Eh   |
          | TOTAL ENTHALPY            -11.164934706863 Eh   |
          | TOTAL FREE ENERGY         -11.165352903921 Eh   |
          | GRADIENT NORM               0.000815387936 Eh/Î± |
          | HOMO-LUMO GAP               0.000010549944 eV   |
           -------------------------------------------------

 * finished run on 2020/05/12 at 11:44:00.889
