   * xtb version 6.2.2 (9d81278992624c895f80dd42a50cac0aa55982e2) compiled by '@Darwin' on 04/03/2020
          program call               : xtb --input H1C4_9_S_1.input H1C4_9_S_1.xyz --ohess --molden --namespace H1C4_9_S_1 output.out
          number of atoms            :                     5
          number of electrons        :                    17
          charge                     :                     0
          spin                       :                   0.5

   ID    Z sym.   atoms
    1    6 C      1-4
    2    1 H      5

          :  Hamiltonian                  GFN2-xTB          :
 * total energy  :    -8.6416582 Eh     change        0.8898393E-09 Eh
 * total energy  :    -8.6816521 Eh     change       -0.3999392E-01 Eh
 * total energy  :    -8.6972677 Eh     change       -0.1561556E-01 Eh
 * total energy  :    -8.7008810 Eh     change       -0.3613322E-02 Eh
 * total energy  :    -8.7035595 Eh     change       -0.2678479E-02 Eh
 * total energy  :    -8.7063029 Eh     change       -0.2743455E-02 Eh
 * total energy  :    -8.6866772 Eh     change        0.1962567E-01 Eh
 * total energy  :    -8.7101245 Eh     change       -0.2344725E-01 Eh
 * total energy  :    -8.7112950 Eh     change       -0.1170466E-02 Eh
 * total energy  :    -8.7129279 Eh     change       -0.1632920E-02 Eh
 * total energy  :    -8.7155608 Eh     change       -0.2632872E-02 Eh
 * total energy  :    -8.7161697 Eh     change       -0.6089621E-03 Eh
 * total energy  :    -8.7164208 Eh     change       -0.2511058E-03 Eh
 * total energy  :    -8.7164890 Eh     change       -0.6813063E-04 Eh
 * total energy  :    -8.7164954 Eh     change       -0.6406628E-05 Eh
 * total energy  :    -8.7164962 Eh     change       -0.8800072E-06 Eh
   *** GEOMETRY OPTIMIZATION CONVERGED AFTER 16 ITERATIONS ***

 final structure:
================
5
 xtb: 6.2.2 (9d81278992624c895f80dd42a50cac0aa55982e2)
C         0.99988439060123   -0.26132411760332   -0.24644207020586
C        -0.39031457223431   -0.43190954215336   -0.16989759197226
C        -0.35500955342296    0.96760215671476   -0.25789799550967
C         0.82175503931115    0.91088379837185    0.52575976195087
H        -1.07631430425511   -1.18525229532993    0.14847889573692

          :  Hamiltonian                  GFN2-xTB          :
         :: gradient norm              0.000149799739 Eh/a0 ::
         :: HOMO-LUMO gap              2.286604709601 eV    ::
         :: SCC energy                -8.858001079909 Eh    ::
         :: -> dispersion             -0.002017013934 Eh    ::
         :: repulsion energy           0.141504813744 Eh    ::

    * Orbital Energies and Occupations

         #    Occupation            Energy/Eh            Energy/eV
      -------------------------------------------------------------
         1        2.0000           -0.7180829             -19.5400
         2        2.0000           -0.6232514             -16.9595
         3        2.0000           -0.6034937             -16.4219
         4        2.0000           -0.5628305             -15.3154
         5        2.0000           -0.5099698             -13.8770
         6        2.0000           -0.5073365             -13.8053
         7        2.0000           -0.4462505             -12.1431
         8        2.0000           -0.4204012             -11.4397
         9        1.0000           -0.3905330             -10.6269 (HOMO)
        10                         -0.3065020              -8.3403 (LUMO)
        11                         -0.2688064              -7.3146
        12                         -0.2458953              -6.6912
        13                          0.1029613               2.8017
        14                          0.1188001               3.2327
        15                          0.1799486               4.8967
        16                          0.2702062               7.3527
        17                          0.6432036              17.5025
      -------------------------------------------------------------
                  HL-Gap            0.0840311 Eh            2.2866 eV

     #   Z        covCN         q      C6AA      Î±(0)
     1   6 C      2.762    -0.039    28.949     8.811
     2   6 C      3.504     0.060    21.059     6.801
     3   6 C      2.762    -0.039    28.950     8.811
     4   6 C      2.576    -0.061    29.548     8.887
     5   1 H      0.927     0.079     1.990     2.206

Wiberg/Mayer (AO) data.
largest (>0.10) Wiberg bond orders for each atom
          total WBO             WBO to atom ...

molecular dipole:
                 x           y           z       tot (Debye)
 q only:       -0.348      -0.384      -0.021
   full:       -0.636      -0.703      -0.166       2.448

 projected vibrational frequencies (cm-1)
eigval :       -0.00    -0.00     0.00     0.00     0.00     0.00
eigval :      523.19   625.30   744.68   749.79   914.30  1055.80
eigval :     1273.78  1462.47  3183.85

   temp. (K)  partition function   enthalpy   heat capacity  entropy
                                   cal/mol     cal/K/mol   cal/K/mol   J/K/mol
  10.00  VIB   1.00                    0.000      0.000     -0.000
         ROT   82.8                   29.809      2.981     11.756
         INT   82.8                   29.809      2.981     11.756
         TR   0.204E+25               49.681      4.968     20.719
         TOT                          79.4904     7.9490    32.4749   135.8751

       T/K    H(0)-H(T)+PV         H(T)/Eh          T*S/Eh         G(T)/Eh
   ------------------------------------------------------------------------
    298.15    0.442006E-02    0.284164E-01    0.290902E-01   -0.673864E-03
    120.00    0.152716E-02    0.255235E-01    0.999461E-02    0.155289E-01
    100.00    0.126855E-02    0.252648E-01    0.809322E-02    0.171716E-01
     80.00    0.101365E-02    0.250099E-01    0.624716E-02    0.187628E-01
     60.00    0.760066E-03    0.247564E-01    0.446659E-02    0.202898E-01
     40.00    0.506704E-03    0.245030E-01    0.277233E-02    0.217307E-01
     20.00    0.253352E-03    0.242496E-01    0.121060E-02    0.230390E-01
     10.00    0.126676E-03    0.241230E-01    0.517521E-03    0.236055E-01 (used)
   ------------------------------------------------------------------------

         :::::::::::::::::::::::::::::::::::::::::::::::::::::
         ::                  THERMODYNAMIC                  ::
         :::::::::::::::::::::::::::::::::::::::::::::::::::::
         :: total free energy          -8.692890789076 Eh   ::
         ::.................................................::
         :: total energy               -8.716496241921 Eh   ::
         :: zero point energy           0.023996297854 Eh   ::
         :: G(RRHO) w/o ZPVE           -0.000390845009 Eh   ::
         :: G(RRHO) contrib.            0.023605452845 Eh   ::
         :::::::::::::::::::::::::::::::::::::::::::::::::::::

           -------------------------------------------------
          | TOTAL ENERGY               -8.716496241921 Eh   |
          | TOTAL ENTHALPY             -8.692373268051 Eh   |
          | TOTAL FREE ENERGY          -8.692890789076 Eh   |
          | GRADIENT NORM               0.000149872915 Eh/Î± |
          | HOMO-LUMO GAP               2.286601389244 eV   |
           -------------------------------------------------

 * finished run on 2020/05/12 at 11:45:11.725
