   * xtb version 6.2.2 (9d81278992624c895f80dd42a50cac0aa55982e2) compiled by '@Darwin' on 04/03/2020
          program call               : xtb --input H2C1N2_10_S_2.input H2C1N2_10_S_2.xyz --ohess --molden --namespace H2C1N2_10_S_2 output.out
          number of atoms            :                     5
          number of electrons        :                    16
          charge                     :                     0
          spin                       :                   1.0

   ID    Z sym.   atoms
    1    7 N      1, 3
    2    6 C      2
    3    1 H      4, 5

          :  Hamiltonian                  GFN2-xTB          :
 * total energy  :    -8.6729864 Eh     change        0.5962750E-09 Eh
 * total energy  :    -8.6817844 Eh     change       -0.8798009E-02 Eh
 * total energy  :    -8.6837520 Eh     change       -0.1967539E-02 Eh
 * total energy  :    -8.6849578 Eh     change       -0.1205848E-02 Eh
 * total energy  :    -8.6849763 Eh     change       -0.1848550E-04 Eh
 * total energy  :    -8.6849799 Eh     change       -0.3621917E-05 Eh
   *** GEOMETRY OPTIMIZATION CONVERGED AFTER 6 ITERATIONS ***

 final structure:
================
5
 xtb: 6.2.2 (9d81278992624c895f80dd42a50cac0aa55982e2)
N        -0.29592157028342   -0.00344631482989   -0.06042617112033
C         1.04953373254196   -0.11072956856916   -0.61310270932372
N         0.95644475236627    0.08853092716726    0.71612722028052
H        -0.83921301088600    0.85860504531330   -0.14697958026125
H        -0.87084290373881   -0.83296008908151    0.10438124042477

          :  Hamiltonian                  GFN2-xTB          :
         :: gradient norm              0.000708802799 Eh/a0 ::
         :: HOMO-LUMO gap              3.134462520553 eV    ::
         :: SCC energy                -8.757556436909 Eh    ::
         :: -> dispersion             -0.001442288442 Eh    ::
         :: repulsion energy           0.072576482535 Eh    ::

    * Orbital Energies and Occupations

         #    Occupation            Energy/Eh            Energy/eV
      -------------------------------------------------------------
         1        2.0000           -0.7023708             -19.1125
         2        2.0000           -0.6451391             -17.5551
         3        2.0000           -0.6013340             -16.3631
         4        2.0000           -0.5698206             -15.5056
         5        2.0000           -0.5008131             -13.6278
         6        2.0000           -0.4265599             -11.6073
         7        2.0000           -0.3993908             -10.8680
         8        1.0000           -0.3745807             -10.1929
         9        1.0000           -0.2367778              -6.4431 (HOMO)
        10                         -0.1215884              -3.3086 (LUMO)
        11                         -0.0756694              -2.0591
        12                          0.1024760               2.7885
        13                          0.1509935               4.1087
        14                          0.3385830               9.2133
      -------------------------------------------------------------
                  HL-Gap            0.1151894 Eh            3.1345 eV

     #   Z        covCN         q      C6AA      Î±(0)
     1   7 N      3.597     0.006    21.142     6.829
     2   6 C      1.817    -0.082    33.443     9.344
     3   7 N      1.881    -0.263    27.692     7.801
     4   1 H      0.859     0.170     1.275     1.769
     5   1 H      0.859     0.170     1.275     1.769

Wiberg/Mayer (AO) data.
largest (>0.10) Wiberg bond orders for each atom
          total WBO             WBO to atom ...

molecular dipole:
                 x           y           z       tot (Debye)
 q only:       -1.191      -0.019      -0.275
   full:       -1.739      -0.031      -0.425       4.551

 projected vibrational frequencies (cm-1)
eigval :       -0.00    -0.00    -0.00    -0.00     0.00     0.00
eigval :      677.63   864.34   872.67   972.36  1022.18  1476.19
eigval :     1549.85  3189.48  3208.62

   temp. (K)  partition function   enthalpy   heat capacity  entropy
                                   cal/mol     cal/K/mol   cal/K/mol   J/K/mol
  10.00  VIB   1.00                    0.000      0.000     -0.000
         ROT   43.3                   29.809      2.981     10.469
         INT   43.3                   29.809      2.981     10.468
         TR   0.162E+25               49.681      4.968     20.259
         TOT                          79.4904     7.9490    30.7278   128.5651

       T/K    H(0)-H(T)+PV         H(T)/Eh          T*S/Eh         G(T)/Eh
   ------------------------------------------------------------------------
    298.15    0.410464E-02    0.356193E-01    0.278284E-01    0.779089E-02
    120.00    0.152133E-02    0.330360E-01    0.965371E-02    0.233822E-01
    100.00    0.126698E-02    0.327816E-01    0.781298E-02    0.249686E-01
     80.00    0.101343E-02    0.325281E-01    0.602415E-02    0.265039E-01
     60.00    0.760056E-03    0.322747E-01    0.429951E-02    0.279752E-01
     40.00    0.506704E-03    0.320213E-01    0.266095E-02    0.293604E-01
     20.00    0.253352E-03    0.317680E-01    0.115492E-02    0.306131E-01
     10.00    0.126676E-03    0.316413E-01    0.489679E-03    0.311516E-01 (used)
   ------------------------------------------------------------------------

         :::::::::::::::::::::::::::::::::::::::::::::::::::::
         ::                  THERMODYNAMIC                  ::
         :::::::::::::::::::::::::::::::::::::::::::::::::::::
         :: total free energy          -8.653828304371 Eh   ::
         ::.................................................::
         :: total energy               -8.684979934675 Eh   ::
         :: zero point energy           0.031514633025 Eh   ::
         :: G(RRHO) w/o ZPVE           -0.000363002721 Eh   ::
         :: G(RRHO) contrib.            0.031151630304 Eh   ::
         :::::::::::::::::::::::::::::::::::::::::::::::::::::

           -------------------------------------------------
          | TOTAL ENERGY               -8.684979934675 Eh   |
          | TOTAL ENTHALPY             -8.653338625635 Eh   |
          | TOTAL FREE ENERGY          -8.653828304371 Eh   |
          | GRADIENT NORM               0.000708765102 Eh/Î± |
          | HOMO-LUMO GAP               3.134463507956 eV   |
           -------------------------------------------------

 * finished run on 2020/05/12 at 11:45:23.496
