   * xtb version 6.2.2 (9d81278992624c895f80dd42a50cac0aa55982e2) compiled by '@Darwin' on 04/03/2020
          program call               : xtb --input H1C3N1_14_S_2.input H1C3N1_14_S_2.xyz --ohess --molden --namespace H1C3N1_14_S_2 output.out
          number of atoms            :                     5
          number of electrons        :                    18
          charge                     :                     0
          spin                       :                   1.0

   ID    Z sym.   atoms
    1    6 C      1-3
    2    7 N      4
    3    1 H      5

          :  Hamiltonian                  GFN2-xTB          :
 * total energy  :    -9.3962827 Eh     change       -0.2357528E-09 Eh
 * total energy  :    -9.4258510 Eh     change       -0.2956823E-01 Eh
 * total energy  :    -9.4148534 Eh     change        0.1099761E-01 Eh
 * total energy  :    -9.4456756 Eh     change       -0.3082222E-01 Eh
 * total energy  :    -9.4495018 Eh     change       -0.3826212E-02 Eh
 * total energy  :    -9.4513473 Eh     change       -0.1845472E-02 Eh
 * total energy  :    -9.4518386 Eh     change       -0.4913402E-03 Eh
 * total energy  :    -9.4520235 Eh     change       -0.1848609E-03 Eh
 * total energy  :    -9.4521166 Eh     change       -0.9314496E-04 Eh
 * total energy  :    -9.4521356 Eh     change       -0.1898864E-04 Eh
 * total energy  :    -9.4521450 Eh     change       -0.9412466E-05 Eh
 * total energy  :    -9.4521482 Eh     change       -0.3155840E-05 Eh
   *** GEOMETRY OPTIMIZATION CONVERGED AFTER 12 ITERATIONS ***

 final structure:
================
5
 xtb: 6.2.2 (9d81278992624c895f80dd42a50cac0aa55982e2)
C         1.30214418949402   -0.76476900994139    0.15151507680319
C         0.34110371109911    0.11601080442759   -0.05125997066713
C        -1.10508998805091   -0.24243807679650    0.64974401476456
N        -1.06169871086631   -0.29471936021242   -0.56596426350008
H         0.52354079832409    1.18591464252272   -0.18403485740055

          :  Hamiltonian                  GFN2-xTB          :
         :: gradient norm              0.000726946373 Eh/a0 ::
         :: HOMO-LUMO gap              1.058697332556 eV    ::
         :: SCC energy                -9.594058903559 Eh    ::
         :: -> dispersion             -0.002118624113 Eh    ::
         :: repulsion energy           0.141910672962 Eh    ::

    * Orbital Energies and Occupations

         #    Occupation            Energy/Eh            Energy/eV
      -------------------------------------------------------------
         1        2.0000           -0.7249621             -19.7272
         2        2.0000           -0.6644407             -18.0804
         3        2.0000           -0.6029048             -16.4059
         4        2.0000           -0.5774707             -15.7138
         5        2.0000           -0.5649464             -15.3730
         6        2.0000           -0.5088287             -13.8459
         7        2.0000           -0.4703210             -12.7981
         8        1.6669           -0.4389687             -11.9449
         9        1.3331           -0.4376493             -11.9090
        10        1.0000           -0.3622866              -9.8583 (HOMO)
        11                         -0.3233801              -8.7996 (LUMO)
        12                         -0.2828054              -7.6955
        13                         -0.1253804              -3.4118
        14                         -0.0429376              -1.1684
        15                          0.1660168               4.5175
        16                          0.5209806              14.1766
        17                          0.5656483              15.3921
      -------------------------------------------------------------
                  HL-Gap            0.0389065 Eh            1.0587 eV

     #   Z        covCN         q      C6AA      Î±(0)
     1   6 C      0.985    -0.112    39.544    10.564
     2   6 C      3.752     0.104    18.922     6.203
     3   6 C      1.865    -0.003    31.219     9.025
     4   7 N      1.808    -0.076    23.450     7.174
     5   1 H      0.924     0.087     1.905     2.158

Wiberg/Mayer (AO) data.
largest (>0.10) Wiberg bond orders for each atom
          total WBO             WBO to atom ...

molecular dipole:
                 x           y           z       tot (Debye)
 q only:        0.036       0.425       0.005
   full:        0.002       0.630      -0.065       1.610

 projected vibrational frequencies (cm-1)
eigval :       -0.00    -0.00    -0.00     0.00     0.00     0.00
eigval :     -208.46   212.54   429.52   621.22   746.46  1140.89
eigval :     1427.67  1828.56  2851.51

   temp. (K)  partition function   enthalpy   heat capacity  entropy
                                   cal/mol     cal/K/mol   cal/K/mol   J/K/mol
  10.00  VIB   1.00                    0.000      0.000     -0.004
         ROT   113.                   29.809      2.981     12.370
         INT   113.                   29.809      2.981     12.366
         TR   0.217E+25               49.681      4.968     20.838
         TOT                          79.4904     7.9490    33.2037   138.9241

       T/K    H(0)-H(T)+PV         H(T)/Eh          T*S/Eh         G(T)/Eh
   ------------------------------------------------------------------------
    298.15    0.487301E-02    0.259651E-01    0.303187E-01   -0.435362E-02
    120.00    0.161580E-02    0.227079E-01    0.102561E-01    0.124518E-01
    100.00    0.131901E-02    0.224111E-01    0.827648E-02    0.141346E-01
     80.00    0.103598E-02    0.221281E-01    0.636882E-02    0.157593E-01
     60.00    0.766084E-03    0.218582E-01    0.454397E-02    0.173142E-01
     40.00    0.507168E-03    0.215993E-01    0.281958E-02    0.187797E-01
     20.00    0.253352E-03    0.213455E-01    0.123390E-02    0.201116E-01
     10.00    0.126676E-03    0.212188E-01    0.529134E-03    0.206896E-01 (used)
   ------------------------------------------------------------------------

         :::::::::::::::::::::::::::::::::::::::::::::::::::::
         ::                  THERMODYNAMIC                  ::
         :::::::::::::::::::::::::::::::::::::::::::::::::::::
         :: total free energy          -9.431458524429 Eh   ::
         ::.................................................::
         :: total energy               -9.452148170402 Eh   ::
         :: zero point energy           0.021092103841 Eh   ::
         :: G(RRHO) w/o ZPVE           -0.000402457867 Eh   ::
         :: G(RRHO) contrib.            0.020689645974 Eh   ::
         :::::::::::::::::::::::::::::::::::::::::::::::::::::

           -------------------------------------------------
          | TOTAL ENERGY               -9.452148170402 Eh   |
          | TOTAL ENTHALPY             -9.430929390546 Eh   |
          | TOTAL FREE ENERGY          -9.431458524429 Eh   |
          | GRADIENT NORM               0.000726431163 Eh/Î± |
          | HOMO-LUMO GAP               1.058699273072 eV   |
           -------------------------------------------------

 * finished run on 2020/05/12 at 11:44:55.987
