   * xtb version 6.2.2 (9d81278992624c895f80dd42a50cac0aa55982e2) compiled by '@Darwin' on 04/03/2020
          program call               : xtb --input C4N1_28_S_1.input C4N1_28_S_1.xyz --ohess --molden --namespace C4N1_28_S_1 output.out
          number of atoms            :                     5
          number of electrons        :                    21
          charge                     :                     0
          spin                       :                   0.5

   ID    Z sym.   atoms
    1    7 N      1
    2    6 C      2-5

          :  Hamiltonian                  GFN2-xTB          :
 * total energy  :   -10.9518053 Eh     change       -0.1580124E-08 Eh
 * total energy  :   -11.0110510 Eh     change       -0.5924576E-01 Eh
 * total energy  :   -11.0355854 Eh     change       -0.2453431E-01 Eh
 * total energy  :   -11.0594060 Eh     change       -0.2382064E-01 Eh
 * total energy  :   -11.0646919 Eh     change       -0.5285913E-02 Eh
 * total energy  :   -11.0685093 Eh     change       -0.3817377E-02 Eh
 * total energy  :   -11.0690480 Eh     change       -0.5386689E-03 Eh
 * total energy  :   -11.0691520 Eh     change       -0.1040730E-03 Eh
 * total energy  :   -11.0691714 Eh     change       -0.1940676E-04 Eh
 * total energy  :   -11.0691809 Eh     change       -0.9493859E-05 Eh
 * total energy  :   -11.0691848 Eh     change       -0.3896399E-05 Eh
 * total energy  :   -11.0691866 Eh     change       -0.1792730E-05 Eh
   *** GEOMETRY OPTIMIZATION CONVERGED AFTER 12 ITERATIONS ***

 final structure:
================
5
 xtb: 6.2.2 (9d81278992624c895f80dd42a50cac0aa55982e2)
N         1.09833875180761    0.25106899757505    0.86881471275905
C        -0.00776472995255    0.02636249363826    0.11806394069789
C        -1.09158738495245   -0.26824942693408   -0.93580750882344
C         1.41126536923809   -0.00040526842630   -0.36820995326007
C        -1.41025200614070   -0.00877779585293    0.31713880862657

          :  Hamiltonian                  GFN2-xTB          :
         :: gradient norm              0.000899314294 Eh/a0 ::
         :: HOMO-LUMO gap              2.960718680889 eV    ::
         :: SCC energy               -11.236171197366 Eh    ::
         :: -> dispersion             -0.002768449803 Eh    ::
         :: repulsion energy           0.166984536259 Eh    ::

    * Orbital Energies and Occupations

         #    Occupation            Energy/Eh            Energy/eV
      -------------------------------------------------------------
         1        2.0000           -0.7608891             -20.7048
         2        2.0000           -0.7354039             -20.0114
         3        2.0000           -0.6409942             -17.4423
         4        2.0000           -0.6052475             -16.4696
         5        2.0000           -0.5960609             -16.2196
         6        2.0000           -0.5574876             -15.1700
         7        2.0000           -0.5353065             -14.5664
         8        2.0000           -0.5057341             -13.7617
         9        2.0000           -0.4606061             -12.5337
        10        2.0000           -0.4512890             -12.2802
        11        1.0000           -0.4288002             -11.6682 (HOMO)
        12                         -0.3199960              -8.7075 (LUMO)
        13                         -0.3156556              -8.5894
        14                         -0.2791394              -7.5958
        15                         -0.2700037              -7.3472
        16                         -0.0394374              -1.0731
        17                          0.0663490               1.8054
        18                          0.3431392               9.3373
        19                          0.4065292              11.0622
        20                          0.5539648              15.0741
      -------------------------------------------------------------
                  HL-Gap            0.1088042 Eh            2.9607 eV

     #   Z        covCN         q      C6AA      Î±(0)
     1   7 N      1.820    -0.114    24.248     7.296
     2   6 C      3.840     0.246    16.793     5.830
     3   6 C      1.955    -0.052    32.472     9.202
     4   6 C      1.888    -0.062    32.798     9.250
     5   6 C      1.961    -0.018    31.551     9.071

Wiberg/Mayer (AO) data.
largest (>0.10) Wiberg bond orders for each atom
          total WBO             WBO to atom ...

molecular dipole:
                 x           y           z       tot (Debye)
 q only:       -0.250      -0.015      -0.008
   full:       -0.283       0.047       0.280       1.019

 projected vibrational frequencies (cm-1)
eigval :       -0.00    -0.00    -0.00     0.00     0.00     0.00
eigval :      218.83   231.98   340.71   435.86   738.61   861.45
eigval :     1027.76  1654.14  1817.43

   temp. (K)  partition function   enthalpy   heat capacity  entropy
                                   cal/mol     cal/K/mol   cal/K/mol   J/K/mol
  10.00  VIB   1.00                    0.000      0.000     -0.008
         ROT   203.                   29.809      2.981     13.542
         INT   203.                   29.809      2.981     13.534
         TR   0.290E+25               49.681      4.968     21.419
         TOT                          79.4904     7.9490    34.9536   146.2460

       T/K    H(0)-H(T)+PV         H(T)/Eh          T*S/Eh         G(T)/Eh
   ------------------------------------------------------------------------
    298.15    0.566618E-02    0.223578E-01    0.324710E-01   -0.101132E-01
    120.00    0.170582E-02    0.183975E-01    0.107097E-01    0.768772E-02
    100.00    0.136588E-02    0.180575E-01    0.861533E-02    0.944219E-02
     80.00    0.105401E-02    0.177456E-01    0.661439E-02    0.111313E-01
     60.00    0.769898E-03    0.174615E-01    0.471610E-02    0.127454E-01
     40.00    0.507344E-03    0.171990E-01    0.293152E-02    0.142675E-01
     20.00    0.253352E-03    0.169450E-01    0.128972E-02    0.156553E-01
     10.00    0.126676E-03    0.168183E-01    0.557022E-03    0.162613E-01 (used)
   ------------------------------------------------------------------------

         :::::::::::::::::::::::::::::::::::::::::::::::::::::
         ::                  THERMODYNAMIC                  ::
         :::::::::::::::::::::::::::::::::::::::::::::::::::::
         :: total free energy         -11.052925323999 Eh   ::
         ::.................................................::
         :: total energy              -11.069186618341 Eh   ::
         :: zero point energy           0.016691639992 Eh   ::
         :: G(RRHO) w/o ZPVE           -0.000430345650 Eh   ::
         :: G(RRHO) contrib.            0.016261294342 Eh   ::
         :::::::::::::::::::::::::::::::::::::::::::::::::::::

           -------------------------------------------------
          | TOTAL ENERGY              -11.069186618341 Eh   |
          | TOTAL ENTHALPY            -11.052368302334 Eh   |
          | TOTAL FREE ENERGY         -11.052925323999 Eh   |
          | GRADIENT NORM               0.000899944268 Eh/Î± |
          | HOMO-LUMO GAP               2.960711829896 eV   |
           -------------------------------------------------

 * finished run on 2020/05/12 at 11:44:10.567
