 Gaussian 16, Revision B.01,

 --------------------------------------------------------
 #P M062X/cc-pvtz nosymm opt(noeigentest) optcyc=120 freq
 --------------------------------------------------------

 -----
 Title
 -----
 Symbolic Z-matrix:
 Charge =  0 Multiplicity = 1

 SCF Done:  E(RM062X) =  -116.640810953     A.U. after   11 cycles
 SCF Done:  E(RM062X) =  -116.640822487     A.U. after   10 cycles
 SCF Done:  E(RM062X) =  -116.639096270     A.U. after   10 cycles
 SCF Done:  E(RM062X) =  -116.640493964     A.U. after    9 cycles
 SCF Done:  E(RM062X) =  -116.640930135     A.U. after    7 cycles
 SCF Done:  E(RM062X) =  -116.641058856     A.U. after    9 cycles
 SCF Done:  E(RM062X) =  -116.640696350     A.U. after    9 cycles
 SCF Done:  E(RM062X) =  -116.641061198     A.U. after    8 cycles
 SCF Done:  E(RM062X) =  -116.641062514     A.U. after    7 cycles
 SCF Done:  E(RM062X) =  -116.641062959     A.U. after    7 cycles
 Optimization completed.
    -- Stationary point found.
 Normal termination of Gaussian 16 at Fri Sep 25 15:05:35 2020.

 -------------------------------------------------------------------
 #P Geom=AllCheck Guess=TCheck SCRF=Check GenChk RM062X/CC-pVTZ Freq
 -------------------------------------------------------------------

 Structure from the checkpoint file:  "input.chk"
 -----
 Title
 -----
 Charge =  0 Multiplicity = 1

 SCF Done:  E(RM062X) =  -116.641062959     A.U. after    1 cycles

  Exact polarizability:  23.612   0.000  23.612  -0.020   0.011  59.637
 Approx polarizability:  27.931  -0.000  27.931  -0.024   0.013  72.364

                      1                      2                      3
                      A                      A                      A
 Frequencies --    377.1324               377.1354               887.6242
 Red. masses --      2.4358                 2.4358                 1.0078
 Frc consts  --      0.2041                 0.2041                 0.4678
 IR Inten    --      7.0655                 7.0665                 0.0010

                      4                      5                      6
                      A                      A                      A
 Frequencies --    891.3785               891.3964              1015.4486
 Red. masses --      1.3030                 1.3030                 1.5590
 Frc consts  --      0.6100                 0.6100                 0.9471
 IR Inten    --     58.9903                58.9908                 0.3471

                      7                      8                      9
                      A                      A                      A
 Frequencies --   1015.4559              1121.4502              1420.6792
 Red. masses --      1.5590                 2.2918                 1.0808
 Frc consts  --      0.9471                 1.6982                 1.2852
 IR Inten    --      0.3472                 0.0000                 4.1770

                     10                     11                     12
                      A                      A                      A
 Frequencies --   1485.0480              2084.4967              3161.2051
 Red. masses --      1.4571                 9.3426                 1.0593
 Frc consts  --      1.8933                23.9177                 6.2372
 IR Inten    --      0.0000                85.5959                 0.0678

                     13                     14                     15
                      A                      A                      A
 Frequencies --   3164.6092              3243.1055              3243.1289
 Red. masses --      1.0580                 1.1159                 1.1159
 Frc consts  --      6.2430                 6.9153                 6.9154
 IR Inten    --      0.0000                 0.0914                 0.0913

 - Thermochemistry -
 -------------------
 Temperature   298.150 Kelvin.  Pressure   1.00000 Atm.
 Atom     1 has atomic number  6 and mass  12.00000

 Molecular mass:    40.03130 amu.
 Principal axes and moments of inertia in atomic units:
                           1         2         3
     Eigenvalues --    12.39760 200.42607 200.42621
           X           -0.00055   0.85510   0.51847
           Y            0.00029  -0.51847   0.85510
           Z            1.00000   0.00062   0.00004
 This molecule is an asymmetric top.
 Rotational symmetry number  1.
 Rotational temperatures (Kelvin)      6.98635     0.43215     0.43215
 Rotational constants (GHZ):         145.57183     9.00452     9.00452
 Zero-point vibrational energy     145820.6 (Joules/Mol)
                                   34.85195 (Kcal/Mol)
 Warning -- explicit consideration of   2 degrees of freedom as
           vibrations may cause significant error
 Vibrational temperatures:    542.61   542.61  1277.09  1282.49  1282.52
          (Kelvin)           1461.00  1461.01  1613.52  2044.04  2136.65
                             2999.13  4548.27  4553.17  4666.11  4666.14

 Zero-point correction=                           0.055540 (Hartree/Particle)
 Thermal correction to Energy=                    0.059310
 Thermal correction to Enthalpy=                  0.060254
 Thermal correction to Gibbs Free Energy=         0.031449
 Sum of electronic and zero-point Energies=           -116.585523
 Sum of electronic and thermal Energies=              -116.581753
 Sum of electronic and thermal Enthalpies=            -116.580809
 Sum of electronic and thermal Free Energies=         -116.609614

                     E (Thermal)             CV                S
                      KCal/Mol        Cal/Mol-Kelvin    Cal/Mol-Kelvin
 Total                   37.218             11.710             60.626
 Electronic               0.000              0.000              0.000
 Translational            0.889              2.981             36.989
 Rotational               0.889              2.981             20.837
 Vibrational             35.440              5.749              2.800
 Vibration     1          0.748              1.519              1.051
 Vibration     2          0.748              1.519              1.051

 Optimization completed.
    -- Stationary point found.
 Normal termination of Gaussian 16 at Fri Sep 25 15:06:39 2020.
 Gaussian 16:  ES64L-G16RevB.01 20-Dec-2017

 -----------------------------------------------
 #P CCSD(T)/aug-cc-pvtz geom=allcheck guess=read
 -----------------------------------------------

 Structure from the checkpoint file:  "input.chk"
 -----
 Title
 -----
 Charge =  0 Multiplicity = 1

                         Standard orientation:
 ---------------------------------------------------------------------
 Center     Atomic      Atomic             Coordinates (Angstroms)
 Number     Number       Type             X           Y           Z
 ---------------------------------------------------------------------
      1          6           0        0.000000   -0.000001   -0.000034
      2          6           0        1.299147   -0.000001    0.000003
      3          6           0       -1.299142    0.000002    0.000008
      4          1           0        1.855695    0.924649    0.078976
      5          1           0        1.855730   -0.924630   -0.078924
      6          1           0       -1.855787    0.078943   -0.924585
      7          1           0       -1.855669   -0.078959    0.924673
 ---------------------------------------------------------------------

 SCF Done:  E(RHF) =  -115.907218593     A.U. after   10 cycles
 E2 =    -0.4832344357D+00 EUMP2 =    -0.11639045302887D+03
 CCSD(T)
 CCSD(T)= -0.11644070987D+03

 The electronic state is 1-A.
 Alpha  occ. eigenvalues --  -11.26059 -11.23537 -11.23526  -1.07739  -0.96094
 Alpha  occ. eigenvalues --   -0.71539  -0.63000  -0.60991  -0.60991  -0.37969
 Alpha  occ. eigenvalues --   -0.37969
 Alpha virt. eigenvalues --    0.03062   0.03899   0.04557   0.04557   0.07997
 Alpha virt. eigenvalues --    0.09169   0.09169   0.10092   0.13367   0.13436
 Alpha virt. eigenvalues --    0.13436   0.13929   0.15163   0.15163   0.18635

 Mulliken charges:
               1
     1  C    0.739557
     2  C   -1.132179
     3  C   -1.132165
     4  H    0.381195
     5  H    0.381201
     6  H    0.381204
     7  H    0.381186
 Sum of Mulliken charges =  -0.00000

 Dipole moment (field-independent basis, Debye):
    X=             -0.0000    Y=             -0.0000    Z=              0.0001  Tot=              0.0001
 Quadrupole moment (field-independent basis, Debye-Ang):
   XX=            -15.5841   YY=            -19.8278   ZZ=            -19.8279
   XY=             -0.0000   XZ=              0.0001   YZ=              0.0000

 4\MP4SDQ=-116.416082\CCSD=-116.4159613\CCSD(T)=-116.4407099\RMSD=3.618
 Normal termination of Gaussian 16 at Fri Sep 25 15:16:58 2020.
