   * xtb version 6.2.2 (9d81278992624c895f80dd42a50cac0aa55982e2) compiled by '@Darwin' on 04/03/2020
          program call               : xtb --input C1O1_0_S_0.input C1O1_0_S_0.xyz --ohess --molden --namespace C1O1_0_S_0 output.out
          number of atoms            :                     2
          number of electrons        :                    10
          charge                     :                     0
          spin                       :                   0.0

   ID    Z sym.   atoms
    1    8 O      1
    2    6 C      2

          :  Hamiltonian                  GFN2-xTB          :
 * total energy  :    -6.0302921 Eh     change       -0.4242828E-11 Eh
 * total energy  :    -6.1180296 Eh     change       -0.8773754E-01 Eh
 * total energy  :    -6.1101684 Eh     change        0.7861189E-02 Eh
 * total energy  :    -6.1216717 Eh     change       -0.1150327E-01 Eh
 * total energy  :    -6.1218417 Eh     change       -0.1700461E-03 Eh
 * total energy  :    -6.1218502 Eh     change       -0.8492260E-05 Eh
 * total energy  :    -6.1218502 Eh     change       -0.6670171E-08 Eh
   *** GEOMETRY OPTIMIZATION CONVERGED AFTER 7 ITERATIONS ***

 final structure:
================
2
 xtb: 6.2.2 (9d81278992624c895f80dd42a50cac0aa55982e2)
O         0.56367674322730    0.00000000000000    0.00000000000000
C        -0.56367674322730    0.00000000000000    0.00000000000000

          :  Hamiltonian                  GFN2-xTB          :
         :: gradient norm              0.000109735002 Eh/a0 ::
         :: HOMO-LUMO gap              5.219340089714 eV    ::
         :: SCC energy                -6.191100026479 Eh    ::
         :: -> dispersion             -0.000259841036 Eh    ::
         :: repulsion energy           0.069249782761 Eh    ::

    * Orbital Energies and Occupations
Molecule has the following symmetry elements: (Cinf) (sigma)
It seems to be the Cinfv point group

         #    Occupation            Energy/Eh            Energy/eV
      -------------------------------------------------------------
         1        2.0000           -0.7973433             -21.6968
         2        2.0000           -0.6560974             -17.8533
         3        2.0000           -0.6143476             -16.7172
         4        2.0000           -0.6143476             -16.7172
         5        2.0000           -0.4732073             -12.8766 (HOMO)
         6                         -0.2814001              -7.6573 (LUMO)
         7                         -0.2814001              -7.6573
         8                          0.8069605              21.9585
      -------------------------------------------------------------
                  HL-Gap            0.1918072 Eh            5.2193 eV

     #   Z        covCN         q      C6AA      Î±(0)
     1   8 O      0.856    -0.049    15.782     5.326
     2   6 C      0.856     0.049    33.653     9.680

Wiberg/Mayer (AO) data.
largest (>0.10) Wiberg bond orders for each atom
          total WBO             WBO to atom ...

molecular dipole:
                 x           y           z       tot (Debye)
 q only:       -0.104       0.000       0.000
   full:        0.242      -0.000      -0.000       0.615

   temp. (K)  partition function   enthalpy   heat capacity  entropy
                                   cal/mol     cal/K/mol   cal/K/mol   J/K/mol
  10.00  VIB   1.00                    0.000      0.000     -0.000
         ROT   3.59                   19.873      1.987      4.530
         INT   3.59                   19.873      1.987      4.530
         TR   0.881E+24               49.681      4.968     19.050
         TOT                          69.5541     6.9554    23.5797    98.6573

       T/K    H(0)-H(T)+PV         H(T)/Eh          T*S/Eh         G(T)/Eh
   ------------------------------------------------------------------------
    298.15    0.330496E-02    0.836709E-02    0.224194E-01   -0.140523E-01
    120.00    0.133010E-02    0.639223E-02    0.781321E-02   -0.142098E-02
    100.00    0.110842E-02    0.617055E-02    0.630899E-02   -0.138441E-03
     80.00    0.886732E-03    0.594886E-02    0.484939E-02    0.109947E-02
     60.00    0.665049E-03    0.572718E-02    0.344579E-02    0.228139E-02
     40.00    0.443366E-03    0.550550E-02    0.211748E-02    0.338801E-02
     20.00    0.221683E-03    0.528381E-02    0.905137E-03    0.437868E-02
     10.00    0.110842E-03    0.517297E-02    0.375766E-03    0.479721E-02 (used)
   ------------------------------------------------------------------------

         :::::::::::::::::::::::::::::::::::::::::::::::::::::
         ::                  THERMODYNAMIC                  ::
         :::::::::::::::::::::::::::::::::::::::::::::::::::::
         :: total free energy          -6.117053036906 Eh   ::
         ::.................................................::
         :: total energy               -6.121850243718 Eh   ::
         :: zero point energy           0.005062131020 Eh   ::
         :: G(RRHO) w/o ZPVE           -0.000264924208 Eh   ::
         :: G(RRHO) contrib.            0.004797206812 Eh   ::
         :::::::::::::::::::::::::::::::::::::::::::::::::::::

           -------------------------------------------------
          | TOTAL ENERGY               -6.121850243718 Eh   |
          | TOTAL ENTHALPY             -6.116677271184 Eh   |
          | TOTAL FREE ENERGY          -6.117053036906 Eh   |
          | GRADIENT NORM               0.000109744463 Eh/Î± |
          | HOMO-LUMO GAP               5.219340131193 eV   |
           -------------------------------------------------

 * finished run on 2020/05/12 at 11:43:53.526
