 Gaussian 16, Revision B.01,

 --------------------------------------------------------
 #P M062X/cc-pvtz nosymm opt(noeigentest) optcyc=120 freq
 --------------------------------------------------------

 -----
 Title
 -----
 Symbolic Z-matrix:
 Charge =  0 Multiplicity = 2

 SCF Done:  E(UM062X) =  -155.275995525     A.U. after   19 cycles
 SCF Done:  E(UM062X) =  -155.281705084     A.U. after   15 cycles
 SCF Done:  E(UM062X) =  -155.282154500     A.U. after   14 cycles
 SCF Done:  E(UM062X) =  -155.282170638     A.U. after    9 cycles
 SCF Done:  E(UM062X) =  -155.282173013     A.U. after    8 cycles
 Optimization completed.
    -- Stationary point found.
 Normal termination of Gaussian 16 at Mon Sep 28 10:59:21 2020.

 -------------------------------------------------------------------
 #P Geom=AllCheck Guess=TCheck SCRF=Check GenChk UM062X/CC-pVTZ Freq
 -------------------------------------------------------------------

 Structure from the checkpoint file:  "input.chk"
 -----
 Title
 -----
 Charge =  0 Multiplicity = 2

 SCF Done:  E(UM062X) =  -155.282173013     A.U. after    1 cycles

  Exact polarizability:  43.156  -0.000  26.502  11.315   0.000  76.376
 Approx polarizability:  47.678  -0.000  33.713   9.494   0.000  91.814

                      1                      2                      3
                      A                      A                      A
 Frequencies --    171.5357               294.5038               512.4568
 Red. masses --      2.9593                 2.3512                 2.9206
 Frc consts  --      0.0513                 0.1202                 0.4519
 IR Inten    --      0.0164                 7.6153                 2.4108

                      4                      5                      6
                      A                      A                      A
 Frequencies --    571.0336               757.0387               805.3945
 Red. masses --      1.0857                 1.3504                 1.4153
 Frc consts  --      0.2086                 0.4560                 0.5409
 IR Inten    --     49.7654                11.3052                12.7806

                      7                      8                      9
                      A                      A                      A
 Frequencies --    895.6825               954.3894               966.7033
 Red. masses --      1.5860                 1.4206                 1.3555
 Frc consts  --      0.7497                 0.7624                 0.7463
 IR Inten    --      1.1646                 1.3259                49.6365

                     10                     11                     12
                      A                      A                      A
 Frequencies --   1041.3690              1187.1704              1252.4623
 Red. masses --      1.1296                 2.2738                 1.2133
 Frc consts  --      0.7217                 1.8881                 1.1214
 IR Inten    --     12.8107                 3.8813                 1.2496

                     13                     14                     15
                      A                      A                      A
 Frequencies --   1319.8409              1448.1932              1662.9727
 Red. masses --      1.3247                 1.2147                 5.9897
 Frc consts  --      1.3596                 1.5010                 9.7595
 IR Inten    --      1.3893                 2.5656                 4.5776

                     16                     17                     18
                      A                      A                      A
 Frequencies --   1724.4419              3080.9831              3167.6920
 Red. masses --      5.0826                 1.0831                 1.0594
 Frc consts  --      8.9050                 6.0576                 6.2630
 IR Inten    --      6.1622                 5.2430                 3.8913

                     19                     20                     21
                      A                      A                      A
 Frequencies --   3188.2813              3260.2697              3272.8789
 Red. masses --      1.0933                 1.1158                 1.1028
 Frc consts  --      6.5481                 6.9881                 6.9599
 IR Inten    --      3.7999                 6.6009                 1.9013

 - Thermochemistry -
 -------------------
 Temperature   298.150 Kelvin.  Pressure   1.00000 Atm.
 Atom     1 has atomic number  6 and mass  12.00000

 Molecular mass:    53.03913 amu.
 Principal axes and moments of inertia in atomic units:
                           1         2         3
     Eigenvalues --    36.67871 389.21672 425.89544
           X            0.44105   0.89748   0.00002
           Y           -0.00000  -0.00002   1.00000
           Z            0.89748  -0.44105  -0.00001
 This molecule is an asymmetric top.
 Rotational symmetry number  1.
 Rotational temperatures (Kelvin)      2.36142     0.22253     0.20337
 Rotational constants (GHZ):          49.20405     4.63685     4.23752
 Zero-point vibrational energy     188622.9 (Joules/Mol)
                                   45.08197 (Kcal/Mol)
 Warning -- explicit consideration of   4 degrees of freedom as
           vibrations may cause significant error
 Vibrational temperatures:    246.80   423.73   737.31   821.59  1089.21
          (Kelvin)           1158.78  1288.69  1373.15  1390.87  1498.30
                             1708.07  1802.01  1898.96  2083.63  2392.65
                             2481.09  4432.85  4557.60  4587.23  4690.80
                             4708.94

 Zero-point correction=                           0.071843 (Hartree/Particle)
 Thermal correction to Energy=                    0.076493
 Thermal correction to Enthalpy=                  0.077438
 Thermal correction to Gibbs Free Energy=         0.044872
 Sum of electronic and zero-point Energies=           -155.210330
 Sum of electronic and thermal Energies=              -155.205680
 Sum of electronic and thermal Enthalpies=            -155.204735
 Sum of electronic and thermal Free Energies=         -155.237301

                     E (Thermal)             CV                S
                      KCal/Mol        Cal/Mol-Kelvin    Cal/Mol-Kelvin
 Total                   48.000             15.581             68.541
 Electronic               0.000              0.000              1.377
 Translational            0.889              2.981             37.828
 Rotational               0.889              2.981             23.323
 Vibrational             46.223              9.619              6.012
 Vibration     1          0.626              1.878              2.419
 Vibration     2          0.689              1.684              1.448
 Vibration     3          0.868              1.222              0.628
 Vibration     4          0.927              1.094              0.502

 Optimization completed.
    -- Stationary point found.
 Normal termination of Gaussian 16 at Mon Sep 28 11:03:11 2020.
 Gaussian 16:  ES64L-G16RevB.01 20-Dec-2017

 -----------------------------------------------
 #P CCSD(T)/aug-cc-pvtz geom=allcheck guess=read
 -----------------------------------------------

 Structure from the checkpoint file:  "input.chk"
 -----
 Title
 -----
 Charge =  0 Multiplicity = 2

                         Standard orientation:
 ---------------------------------------------------------------------
 Center     Atomic      Atomic             Coordinates (Angstroms)
 Number     Number       Type             X           Y           Z
 ---------------------------------------------------------------------
      1          6           0        1.761018    0.142669    0.000000
      2          6           0        0.559874   -0.424864   -0.000000
      3          6           0       -1.885015   -0.196917    0.000000
      4          1           0        2.665593   -0.448377    0.000000
      5          1           0        1.871520    1.220186    0.000000
      6          6           0       -0.687642    0.336844   -0.000000
      7          1           0       -2.900572    0.161694    0.000000
      8          1           0       -0.589481    1.424479   -0.000000
      9          1           0        0.463530   -1.504369   -0.000000
 ---------------------------------------------------------------------

 SCF Done:  E(UHF) =  -154.339123820     A.U. after   20 cycles
 E2 =    -0.5896520471D+00 EUMP2 =    -0.15492877586707D+03
 CCSD(T)
 CCSD(T)= -0.15501598257D+03

 The electronic state is 2-A.
 Alpha  occ. eigenvalues --  -11.25475 -11.24162 -11.23034 -11.21829  -1.10018
 Alpha  occ. eigenvalues --   -1.01304  -0.82357  -0.74908  -0.66248  -0.61958
 Alpha  occ. eigenvalues --   -0.57421  -0.51602  -0.46336  -0.40833  -0.36024
 Alpha virt. eigenvalues --    0.03123   0.03431   0.03954   0.05417   0.06042
 Alpha virt. eigenvalues --    0.07966   0.09754   0.09805   0.10875   0.11133
 Alpha virt. eigenvalues --    0.11389   0.12507   0.12577   0.13930   0.14269

  Beta  occ. eigenvalues --  -11.24464 -11.23076 -11.22860 -11.21753  -1.08963
  Beta  occ. eigenvalues --   -0.99202  -0.79693  -0.72212  -0.64972  -0.60186
  Beta  occ. eigenvalues --   -0.56655  -0.50826  -0.46031  -0.34928
  Beta virt. eigenvalues --    0.03071   0.03450   0.03905   0.05215   0.05902
  Beta virt. eigenvalues --    0.08140   0.08452   0.09735   0.10922   0.11176
  Beta virt. eigenvalues --    0.11379   0.11836   0.12858   0.13047   0.14007

 Mulliken charges and spin densities:
               1          2
     1  C   -1.058257  -0.586238
     2  C   -0.208288   0.561514
     3  C   -1.097936   1.680159
     4  H    0.396500   0.036372
     5  H    0.382979   0.030333
     6  C    0.272247  -0.762069
     7  H    0.506078  -0.026089
     8  H    0.415505   0.129494
     9  H    0.391171  -0.063477
 Sum of Mulliken charges =  -0.00000   1.00000

 Dipole moment (field-independent basis, Debye):
    X=              0.0153    Y=              0.5486    Z=              0.0000  Tot=              0.5488
 Quadrupole moment (field-independent basis, Debye-Ang):
   XX=            -21.9512   YY=            -23.4378   ZZ=            -28.3657
   XY=             -1.1113   XZ=              0.0000   YZ=              0.0000

 =-154.9853435\MP4SDQ=-154.9724573\CCSD=-154.9844403\CCSD(T)=-155.01598
 Normal termination of Gaussian 16 at Mon Sep 28 13:05:25 2020.
