   * xtb version 6.2.2 (9d81278992624c895f80dd42a50cac0aa55982e2) compiled by '@Darwin' on 04/03/2020
          program call               : xtb --input C4N1_44_S_3.input C4N1_44_S_3.xyz --ohess --molden --namespace C4N1_44_S_3 output.out
          number of atoms            :                     5
          number of electrons        :                    21
          charge                     :                     0
          spin                       :                   1.5

   ID    Z sym.   atoms
    1    6 C      1-3, 5
    2    7 N      4

          :  Hamiltonian                  GFN2-xTB          :
 * total energy  :   -10.8843368 Eh     change        0.7778324E-08 Eh
 * total energy  :   -10.9130564 Eh     change       -0.2871962E-01 Eh
 * total energy  :   -10.9083761 Eh     change        0.4680248E-02 Eh
 * total energy  :   -10.9297923 Eh     change       -0.2141613E-01 Eh
 * total energy  :   -10.9314075 Eh     change       -0.1615285E-02 Eh
 * total energy  :   -10.9323130 Eh     change       -0.9054297E-03 Eh
 * total energy  :   -10.9324902 Eh     change       -0.1772690E-03 Eh
 * total energy  :   -10.9378125 Eh     change       -0.5322226E-02 Eh
 * total energy  :   -10.9513910 Eh     change       -0.1357850E-01 Eh
 * total energy  :   -10.9532264 Eh     change       -0.1835455E-02 Eh
 * total energy  :   -10.9970768 Eh     change       -0.1167976E-01 Eh
 * total energy  :   -10.9971255 Eh     change       -0.4873428E-04 Eh
 * total energy  :   -11.0007874 Eh     change       -0.3661861E-02 Eh
 * total energy  :   -11.0016715 Eh     change       -0.8841720E-03 Eh
 * total energy  :   -11.0020616 Eh     change       -0.3900517E-03 Eh
 * total energy  :   -11.0022374 Eh     change       -0.1758095E-03 Eh
 * total energy  :   -11.0023654 Eh     change       -0.1279669E-03 Eh
 * total energy  :   -11.0023873 Eh     change       -0.2192661E-04 Eh
 * total energy  :   -11.0023910 Eh     change       -0.3760723E-05 Eh
   *** GEOMETRY OPTIMIZATION CONVERGED AFTER 27 ITERATIONS ***

 final structure:
================
5
 xtb: 6.2.2 (9d81278992624c895f80dd42a50cac0aa55982e2)
C         1.85669852620756   -0.00992925822672   -0.41437504103279
C         0.60976065753702    0.01396040097445   -0.17785264478904
C        -1.44867358411352   -0.02305600234941    0.39593191146863
N        -0.30222800797649   -0.35144079283930    0.91465122401298
C        -0.71555859165457    0.37046665244098   -0.71835544965979

          :  Hamiltonian                  GFN2-xTB          :
         :: gradient norm              0.000945523386 Eh/a0 ::
         :: HOMO-LUMO gap              1.916938210023 eV    ::
         :: SCC energy               -11.172129067506 Eh    ::
         :: -> dispersion             -0.002903358280 Eh    ::
         :: repulsion energy           0.169738009392 Eh    ::

    * Orbital Energies and Occupations

         #    Occupation            Energy/Eh            Energy/eV
      -------------------------------------------------------------
         1        2.0000           -0.7523422             -20.4723
         2        2.0000           -0.6853060             -18.6481
         3        2.0000           -0.6414662             -17.4552
         4        2.0000           -0.6270372             -17.0626
         5        2.0000           -0.5784557             -15.7406
         6        2.0000           -0.5712867             -15.5455
         7        2.0000           -0.5099939             -13.8776
         8        2.0000           -0.4703421             -12.7987
         9        2.0000           -0.4661245             -12.6839
        10        1.0000           -0.4237937             -11.5320
        11        1.0000           -0.4126962             -11.2300
        12        1.0000           -0.4097682             -11.1504 (HOMO)
        13                         -0.3393219              -9.2334 (LUMO)
        14                         -0.3038871              -8.2692
        15                         -0.1801351              -4.9017
        16                         -0.0086469              -0.2353
        17                          0.1076950               2.9305
        18                          0.1902809               5.1778
        19                          0.4215730              11.4716
        20                          0.8321441              22.6438
      -------------------------------------------------------------
                  HL-Gap            0.0704462 Eh            1.9169 eV

     #   Z        covCN         q      C6AA      Î±(0)
     1   6 C      0.982    -0.101    39.146    10.509
     2   6 C      3.094     0.132    25.010     8.196
     3   6 C      2.119     0.042    29.767     8.817
     4   7 N      2.484    -0.068    22.612     7.062
     5   6 C      2.626    -0.005    28.127     8.675

Wiberg/Mayer (AO) data.
largest (>0.10) Wiberg bond orders for each atom
          total WBO             WBO to atom ...

molecular dipole:
                 x           y           z       tot (Debye)
 q only:       -0.273       0.045      -0.045
   full:       -0.428       0.029       0.031       1.094

 projected vibrational frequencies (cm-1)
eigval :       -0.00    -0.00    -0.00    -0.00    -0.00     0.00
eigval :      261.01   347.42   428.37   433.36   514.69   905.14
eigval :     1077.23  1479.32  1764.31

   temp. (K)  partition function   enthalpy   heat capacity  entropy
                                   cal/mol     cal/K/mol   cal/K/mol   J/K/mol
  10.00  VIB   1.00                    0.000      0.000     -0.004
         ROT   203.                   29.809      2.981     13.536
         INT   203.                   29.809      2.981     13.532
         TR   0.290E+25               49.681      4.968     21.419
         TOT                          79.4904     7.9490    34.9514   146.2366

       T/K    H(0)-H(T)+PV         H(T)/Eh          T*S/Eh         G(T)/Eh
   ------------------------------------------------------------------------
    298.15    0.547396E-02    0.219015E-01    0.319876E-01   -0.100862E-01
    120.00    0.162701E-02    0.180545E-01    0.105960E-01    0.745858E-02
    100.00    0.131543E-02    0.177430E-01    0.854634E-02    0.919661E-02
     80.00    0.102937E-02    0.174569E-01    0.658216E-02    0.108747E-01
     60.00    0.762855E-03    0.171904E-01    0.470694E-02    0.124834E-01
     40.00    0.506810E-03    0.169343E-01    0.293048E-02    0.140039E-01
     20.00    0.253352E-03    0.166809E-01    0.128958E-02    0.153913E-01
     10.00    0.126676E-03    0.165542E-01    0.556986E-03    0.159972E-01 (used)
   ------------------------------------------------------------------------

         :::::::::::::::::::::::::::::::::::::::::::::::::::::
         ::                  THERMODYNAMIC                  ::
         :::::::::::::::::::::::::::::::::::::::::::::::::::::
         :: total free energy         -10.986393830429 Eh   ::
         ::.................................................::
         :: total energy              -11.002391045649 Eh   ::
         :: zero point energy           0.016427524902 Eh   ::
         :: G(RRHO) w/o ZPVE           -0.000430309682 Eh   ::
         :: G(RRHO) contrib.            0.015997215220 Eh   ::
         :::::::::::::::::::::::::::::::::::::::::::::::::::::

           -------------------------------------------------
          | TOTAL ENERGY              -11.002391045649 Eh   |
          | TOTAL ENTHALPY            -10.985836844732 Eh   |
          | TOTAL FREE ENERGY         -10.986393830429 Eh   |
          | GRADIENT NORM               0.000945825359 Eh/Î± |
          | HOMO-LUMO GAP               1.916939453485 eV   |
           -------------------------------------------------

 * finished run on 2020/05/12 at 11:44:18.531
