   * xtb version 6.2.2 (9d81278992624c895f80dd42a50cac0aa55982e2) compiled by '@Darwin' on 04/03/2020
          program call               : xtb --input C1O2_2_S_2.input C1O2_2_S_2.xyz --ohess --molden --namespace C1O2_2_S_2 output.out
          number of atoms            :                     3
          number of electrons        :                    16
          charge                     :                     0
          spin                       :                   1.0

   ID    Z sym.   atoms
    1    6 C      1
    2    8 O      2, 3

          :  Hamiltonian                  GFN2-xTB          :
 * total energy  :    -9.9202492 Eh     change       -0.2044054E-10 Eh
 * total energy  :    -9.9233723 Eh     change       -0.3123059E-02 Eh
 * total energy  :    -9.9279190 Eh     change       -0.4546714E-02 Eh
 * total energy  :    -9.9281401 Eh     change       -0.2210651E-03 Eh
 * total energy  :    -9.9281693 Eh     change       -0.2920992E-04 Eh
 * total energy  :    -9.9281695 Eh     change       -0.2407236E-06 Eh
   *** GEOMETRY OPTIMIZATION CONVERGED AFTER 6 ITERATIONS ***

 final structure:
================
3
 xtb: 6.2.2 (9d81278992624c895f80dd42a50cac0aa55982e2)
C        -0.25062081650898    0.70289588267143   -0.01493855442170
O        -0.56354901944301   -0.59788693448446   -0.03125126532352
O         0.81416983595199   -0.10500894818696    0.04618981974522

          :  Hamiltonian                  GFN2-xTB          :
         :: gradient norm              0.000139999974 Eh/a0 ::
         :: HOMO-LUMO gap              1.899746385745 eV    ::
         :: SCC energy                -9.954833136096 Eh    ::
         :: -> dispersion             -0.000668755554 Eh    ::
         :: repulsion energy           0.026663626052 Eh    ::

    * Orbital Energies and Occupations

         #    Occupation            Energy/Eh            Energy/eV
      -------------------------------------------------------------
         1        2.0000           -0.8233892             -22.4056
         2        2.0000           -0.7556740             -20.5629
         3        2.0000           -0.6913585             -18.8128
         4        2.0000           -0.6543612             -17.8061
         5        2.0000           -0.6453525             -17.5609
         6        2.0000           -0.6026959             -16.4002
         7        2.0000           -0.5063867             -13.7795
         8        1.0000           -0.4857557             -13.2181
         9        1.0000           -0.3502626              -9.5311 (HOMO)
        10                         -0.2804482              -7.6314 (LUMO)
        11                         -0.0606337              -1.6499
        12                          0.2855511               7.7702
      -------------------------------------------------------------
                  HL-Gap            0.0698144 Eh            1.8997 eV

     #   Z        covCN         q      C6AA      Î±(0)
     1   6 C      1.708     0.209    26.433     8.324
     2   8 O      1.749    -0.104    15.890     5.383
     3   8 O      1.749    -0.104    15.890     5.383

Wiberg/Mayer (AO) data.
largest (>0.10) Wiberg bond orders for each atom
          total WBO             WBO to atom ...

molecular dipole:
                 x           y           z       tot (Debye)
 q only:       -0.148       0.416      -0.009
   full:       -0.210       0.590      -0.013       1.592

 projected vibrational frequencies (cm-1)
eigval :       -0.00    -0.00    -0.00     0.00     0.00     0.00
eigval :      886.50  1080.79  1560.76
Molecule has the following symmetry elements: (C2) 2*(sigma)
It seems to be the C2v point group

   temp. (K)  partition function   enthalpy   heat capacity  entropy
                                   cal/mol     cal/K/mol   cal/K/mol   J/K/mol
  10.00  VIB   1.00                    0.000      0.000     -0.000
         ROT   17.1                   29.809      2.981      8.618
         INT   17.1                   29.809      2.981      8.618
         TR   0.174E+25               49.681      4.968     20.396
         TOT                          79.4904     7.9490    29.0140   121.3947

       T/K    H(0)-H(T)+PV         H(T)/Eh          T*S/Eh         G(T)/Eh
   ------------------------------------------------------------------------
    298.15    0.386437E-02    0.119019E-01    0.267104E-01   -0.148086E-01
    120.00    0.152022E-02    0.955770E-02    0.932473E-02    0.232975E-03
    100.00    0.126677E-02    0.930425E-02    0.753963E-02    0.176462E-02
     80.00    0.101341E-02    0.905089E-02    0.580563E-02    0.324526E-02
     60.00    0.760056E-03    0.879754E-02    0.413563E-02    0.466190E-02
     40.00    0.506704E-03    0.854419E-02    0.255170E-02    0.599249E-02
     20.00    0.253352E-03    0.829083E-02    0.110029E-02    0.719054E-02
     10.00    0.126676E-03    0.816416E-02    0.462368E-03    0.770179E-02 (used)
   ------------------------------------------------------------------------

         :::::::::::::::::::::::::::::::::::::::::::::::::::::
         ::                  THERMODYNAMIC                  ::
         :::::::::::::::::::::::::::::::::::::::::::::::::::::
         :: total free energy          -9.920467719706 Eh   ::
         ::.................................................::
         :: total energy               -9.928169509305 Eh   ::
         :: zero point energy           0.008037481744 Eh   ::
         :: G(RRHO) w/o ZPVE           -0.000335692144 Eh   ::
         :: G(RRHO) contrib.            0.007701789599 Eh   ::
         :::::::::::::::::::::::::::::::::::::::::::::::::::::

           -------------------------------------------------
          | TOTAL ENERGY               -9.928169509305 Eh   |
          | TOTAL ENTHALPY             -9.920005351546 Eh   |
          | TOTAL FREE ENERGY          -9.920467719706 Eh   |
          | GRADIENT NORM               0.000140010764 Eh/Î± |
          | HOMO-LUMO GAP               1.899746698303 eV   |
           -------------------------------------------------

 * finished run on 2020/05/12 at 11:44:49.479
