 Gaussian 16, Revision B.01,
 Gaussian 16:  ES64L-G16RevB.01 20-Dec-2017

 ------------------------
 #P ROCCSD(T)/aug-cc-pvtz
 ------------------------

 -----
 Title
 -----
 Symbolic Z-matrix:
 Charge =  0 Multiplicity = 3

                         Standard orientation:
 ---------------------------------------------------------------------
 Center     Atomic      Atomic             Coordinates (Angstroms)
 Number     Number       Type             X           Y           Z
 ---------------------------------------------------------------------
      1          6           0        0.000000    0.000000    0.000000
 ---------------------------------------------------------------------

 SCF Done:  E(ROHF) =  -37.6868367460     A.U. after   12 cycles
 E2 =    -0.7257642144D-01 EUMP2 =    -0.37759413167413D+02
 CCSD(T)
 CCSD(T)= -0.37781759119D+02

 Unable to determine electronic state:  an orbital has unidentified symmetry.
 Alpha  occ. eigenvalues --  -11.34826  -0.82105  -0.43325  -0.43325
 Alpha virt. eigenvalues --    0.01204   0.09447   0.09662   0.09662   0.12200
 Alpha virt. eigenvalues --    0.30299   0.30311   0.30311   0.30397   0.30397
 Alpha virt. eigenvalues --    0.53094   0.53094   0.58143   0.72700   1.01965

 Mulliken charges and spin densities:
               1          2
     1  C    0.000000   2.000000
 Sum of Mulliken charges =   0.00000   2.00000

 Dipole moment (field-independent basis, Debye):
    X=              0.0000    Y=              0.0000    Z=              0.0000  Tot=              0.0000
 Quadrupole moment (field-independent basis, Debye-Ang):
   XX=             -6.8924   YY=             -4.8134   ZZ=             -6.8924
   XY=             -0.0000   XZ=              0.0000   YZ=              0.0000

 =-37.7594132\MP4SDQ=-37.7780695\CCSD=-37.7794799\CCSD(T)=-37.7817591\R
 Normal termination of Gaussian 16 at Mon Oct  5 21:21:02 2020.
