   * xtb version 6.2.2 (9d81278992624c895f80dd42a50cac0aa55982e2) compiled by '@Darwin' on 04/03/2020
          program call               : xtb --input C3N1_5_S_3.input C3N1_5_S_3.xyz --ohess --molden --namespace C3N1_5_S_3 output.out
          number of atoms            :                     4
          number of electrons        :                    17
          charge                     :                     0
          spin                       :                   1.5

   ID    Z sym.   atoms
    1    6 C      1, 3, 4
    2    7 N      2

          :  Hamiltonian                  GFN2-xTB          :
 * total energy  :    -8.8185871 Eh     change        0.1510809E-09 Eh
 * total energy  :    -8.8423287 Eh     change       -0.2374164E-01 Eh
 * total energy  :    -8.8578642 Eh     change       -0.1553546E-01 Eh
 * total energy  :    -8.8708420 Eh     change       -0.1297780E-01 Eh
 * total energy  :    -8.8753510 Eh     change       -0.4508998E-02 Eh
 * total energy  :    -8.8772318 Eh     change       -0.1880881E-02 Eh
 * total energy  :    -8.8777437 Eh     change       -0.5118877E-03 Eh
 * total energy  :    -8.8778698 Eh     change       -0.1261105E-03 Eh
 * total energy  :    -8.8778829 Eh     change       -0.1301365E-04 Eh
 * total energy  :    -8.8778836 Eh     change       -0.6967509E-06 Eh
   *** GEOMETRY OPTIMIZATION CONVERGED AFTER 10 ITERATIONS ***

 final structure:
================
4
 xtb: 6.2.2 (9d81278992624c895f80dd42a50cac0aa55982e2)
C         1.56138904666453   -0.01022218950377   -0.03942241670736
N         0.30081430464103   -0.00475104339226    0.11655509429026
C        -0.92627090373467    0.68660374518889   -0.02335115307133
C        -0.93593144757089   -0.67163051229285   -0.05378152451157

          :  Hamiltonian                  GFN2-xTB          :
         :: gradient norm              0.000454872338 Eh/a0 ::
         :: HOMO-LUMO gap              0.649308618584 eV    ::
         :: SCC energy                -8.990592557593 Eh    ::
         :: -> dispersion             -0.001850962739 Eh    ::
         :: repulsion energy           0.112708997817 Eh    ::

    * Orbital Energies and Occupations

         #    Occupation            Energy/Eh            Energy/eV
      -------------------------------------------------------------
         1        2.0000           -0.7588194             -20.6485
         2        2.0000           -0.6959115             -18.9367
         3        2.0000           -0.6262534             -17.0412
         4        2.0000           -0.5990553             -16.3011
         5        2.0000           -0.5812417             -15.8164
         6        2.0000           -0.4949972             -13.4696
         7        2.0000           -0.4679971             -12.7348
         8        1.0000           -0.4451712             -12.1137
         9        1.0000           -0.4396926             -11.9646
        10        1.0000           -0.3352616              -9.1229 (HOMO)
        11        0.0000           -0.3114005              -8.4736 (LUMO)
        12                         -0.2696434              -7.3374
        13                         -0.0717609              -1.9527
        14                         -0.0187134              -0.5092
        15                          0.3982325              10.8365
        16                          0.5562414              15.1361
      -------------------------------------------------------------
                  HL-Gap            0.0238612 Eh            0.6493 eV

     #   Z        covCN         q      C6AA      Î±(0)
     1   6 C      0.912    -0.171    41.035    10.721
     2   7 N      2.728     0.162    18.519     6.391
     3   6 C      1.890     0.004    31.007     8.993
     4   6 C      1.890     0.004    31.007     8.993

Wiberg/Mayer (AO) data.
largest (>0.10) Wiberg bond orders for each atom
          total WBO             WBO to atom ...

molecular dipole:
                 x           y           z       tot (Debye)
 q only:       -0.428       0.002       0.048
   full:       -0.402      -0.001       0.171       1.110

 projected vibrational frequencies (cm-1)
eigval :       -0.00    -0.00     0.00     0.00     0.00     0.00
eigval :      256.01   382.83   410.67   922.67  1392.59  1572.44

   temp. (K)  partition function   enthalpy   heat capacity  entropy
                                   cal/mol     cal/K/mol   cal/K/mol   J/K/mol
  10.00  VIB   1.00                    0.000      0.000     -0.003
         ROT   89.6                   29.809      2.981     11.915
         INT   89.6                   29.809      2.981     11.912
         TR   0.210E+25               49.681      4.968     20.778
         TOT                          79.4904     7.9490    32.6906   136.7777

       T/K    H(0)-H(T)+PV         H(T)/Eh          T*S/Eh         G(T)/Eh
   ------------------------------------------------------------------------
    298.15    0.494137E-02    0.161892E-01    0.301562E-01   -0.139670E-01
    120.00    0.160859E-02    0.128564E-01    0.101417E-01    0.271467E-02
    100.00    0.130904E-02    0.125568E-01    0.817867E-02    0.437816E-02
     80.00    0.102815E-02    0.122759E-01    0.629255E-02    0.598339E-02
     60.00    0.762856E-03    0.120106E-01    0.449075E-02    0.751990E-02
     40.00    0.506823E-03    0.117546E-01    0.278637E-02    0.896825E-02
     20.00    0.253352E-03    0.115011E-01    0.121752E-02    0.102836E-01
     10.00    0.126676E-03    0.113745E-01    0.520959E-03    0.108535E-01 (used)
   ------------------------------------------------------------------------

         :::::::::::::::::::::::::::::::::::::::::::::::::::::
         ::                  THERMODYNAMIC                  ::
         :::::::::::::::::::::::::::::::::::::::::::::::::::::
         :: total free energy          -8.867030042771 Eh   ::
         ::.................................................::
         :: total energy               -8.877883551958 Eh   ::
         :: zero point energy           0.011247791820 Eh   ::
         :: G(RRHO) w/o ZPVE           -0.000394282632 Eh   ::
         :: G(RRHO) contrib.            0.010853509187 Eh   ::
         :::::::::::::::::::::::::::::::::::::::::::::::::::::

           -------------------------------------------------
          | TOTAL ENERGY               -8.877883551958 Eh   |
          | TOTAL ENTHALPY             -8.866509084123 Eh   |
          | TOTAL FREE ENERGY          -8.867030042771 Eh   |
          | GRADIENT NORM               0.000454758185 Eh/Î± |
          | HOMO-LUMO GAP               0.649295210222 eV   |
           -------------------------------------------------

 * finished run on 2020/05/12 at 11:45:05.578
