   * xtb version 6.2.2 (9d81278992624c895f80dd42a50cac0aa55982e2) compiled by '@Darwin' on 04/03/2020
          program call               : xtb --input H1C3N1_19_S_0.input H1C3N1_19_S_0.xyz --ohess --molden --namespace H1C3N1_19_S_0 output.out
          number of atoms            :                     5
          number of electrons        :                    18
          charge                     :                     0
          spin                       :                   0.0

   ID    Z sym.   atoms
    1    6 C      1, 3, 4
    2    7 N      2
    3    1 H      5

          :  Hamiltonian                  GFN2-xTB          :
 * total energy  :    -9.4222378 Eh     change       -0.5200658E-09 Eh
 * total energy  :    -9.4926136 Eh     change       -0.7037578E-01 Eh
 * total energy  :    -9.4608542 Eh     change        0.3175943E-01 Eh
 * total energy  :    -9.5616944 Eh     change       -0.1008402E+00 Eh
 * total energy  :    -9.5711429 Eh     change       -0.9448485E-02 Eh
 * total energy  :    -9.5826281 Eh     change       -0.1148525E-01 Eh
 * total energy  :    -9.5904121 Eh     change       -0.7783970E-02 Eh
 * total energy  :    -9.5927535 Eh     change       -0.2341422E-02 Eh
 * total energy  :    -9.5926679 Eh     change        0.8558498E-04 Eh
 * total energy  :    -9.5930540 Eh     change       -0.3860478E-03 Eh
 * total energy  :    -9.5930708 Eh     change       -0.1679797E-04 Eh
 * total energy  :    -9.5930945 Eh     change       -0.2367272E-04 Eh
 * total energy  :    -9.5931111 Eh     change       -0.1662222E-04 Eh
 * total energy  :    -9.5931201 Eh     change       -0.8963977E-05 Eh
 * total energy  :    -9.5931213 Eh     change       -0.1273176E-05 Eh
   *** GEOMETRY OPTIMIZATION CONVERGED AFTER 15 ITERATIONS ***

 final structure:
================
5
 xtb: 6.2.2 (9d81278992624c895f80dd42a50cac0aa55982e2)
C         1.71001870680701   -0.62990864438765   -0.00500536903939
N         0.67713295800133   -0.05691858965931   -0.00292451887292
C        -0.75878094046571    0.11133444457136    0.00285625228036
C        -0.15912570143090    1.25846485368916   -0.00874292906053
H        -1.46924602291173   -0.68297206421357    0.01381656469247

          :  Hamiltonian                  GFN2-xTB          :
         :: gradient norm              0.000546010316 Eh/a0 ::
         :: HOMO-LUMO gap              3.046054696860 eV    ::
         :: SCC energy                -9.770946051332 Eh    ::
         :: -> dispersion             -0.002227790607 Eh    ::
         :: repulsion energy           0.177824648737 Eh    ::

    * Orbital Energies and Occupations

         #    Occupation            Energy/Eh            Energy/eV
      -------------------------------------------------------------
         1        2.0000           -0.7243503             -19.7106
         2        2.0000           -0.6945704             -18.9002
         3        2.0000           -0.6116252             -16.6432
         4        2.0000           -0.5794162             -15.7667
         5        2.0000           -0.5723960             -15.5757
         6        2.0000           -0.5300831             -14.4243
         7        2.0000           -0.4691700             -12.7668
         8        2.0000           -0.4397347             -11.9658
         9        2.0000           -0.4362603             -11.8712 (HOMO)
        10                         -0.3243193              -8.8252 (LUMO)
        11                         -0.2537960              -6.9061
        12                         -0.2392825              -6.5112
        13                         -0.1144452              -3.1142
        14                         -0.0333980              -0.9088
        15                          0.1031948               2.8081
        16                          0.7433279              20.2270
        17                          0.8595020              23.3882
      -------------------------------------------------------------
                  HL-Gap            0.1119410 Eh            3.0461 eV

     #   Z        covCN         q      C6AA      Î±(0)
     1   6 C      0.912    -0.117    39.172    10.475
     2   7 N      2.713     0.133    18.988     6.472
     3   6 C      2.816     0.051    26.854     8.491
     4   6 C      1.876    -0.130    34.769     9.524
     5   1 H      0.927     0.064     2.154     2.295

Wiberg/Mayer (AO) data.
largest (>0.10) Wiberg bond orders for each atom
          total WBO             WBO to atom ...

molecular dipole:
                 x           y           z       tot (Debye)
 q only:       -0.421      -0.254       0.004
   full:       -0.886      -0.624       0.010       2.756

 projected vibrational frequencies (cm-1)
eigval :       -0.00    -0.00    -0.00     0.00     0.00     0.00
eigval :      314.49   398.28   430.94   706.36   807.50   932.63
eigval :     1705.26  2024.75  3201.34

   temp. (K)  partition function   enthalpy   heat capacity  entropy
                                   cal/mol     cal/K/mol   cal/K/mol   J/K/mol
  10.00  VIB   1.00                    0.000      0.000     -0.002
         ROT   103.                   29.809      2.981     12.199
         INT   103.                   29.809      2.981     12.197
         TR   0.217E+25               49.681      4.968     20.838
         TOT                          79.4904     7.9490    33.0349   138.2180

       T/K    H(0)-H(T)+PV         H(T)/Eh          T*S/Eh         G(T)/Eh
   ------------------------------------------------------------------------
    298.15    0.500742E-02    0.289773E-01    0.303173E-01   -0.134003E-02
    120.00    0.158156E-02    0.255514E-01    0.101698E-01    0.153816E-01
    100.00    0.129252E-02    0.252624E-01    0.821167E-02    0.170507E-01
     80.00    0.102070E-02    0.249906E-01    0.632701E-02    0.186636E-01
     60.00    0.761010E-03    0.247309E-01    0.452135E-02    0.202095E-01
     40.00    0.506723E-03    0.244766E-01    0.280812E-02    0.216685E-01
     20.00    0.253352E-03    0.242232E-01    0.122847E-02    0.229948E-01
     10.00    0.126676E-03    0.240965E-01    0.526445E-03    0.235701E-01 (used)
   ------------------------------------------------------------------------

         :::::::::::::::::::::::::::::::::::::::::::::::::::::
         ::                  THERMODYNAMIC                  ::
         :::::::::::::::::::::::::::::::::::::::::::::::::::::
         :: total free energy          -9.569551228549 Eh   ::
         ::.................................................::
         :: total energy               -9.593121331736 Eh   ::
         :: zero point energy           0.023969871691 Eh   ::
         :: G(RRHO) w/o ZPVE           -0.000399768505 Eh   ::
         :: G(RRHO) contrib.            0.023570103187 Eh   ::
         :::::::::::::::::::::::::::::::::::::::::::::::::::::

           -------------------------------------------------
          | TOTAL ENERGY               -9.593121331736 Eh   |
          | TOTAL ENTHALPY             -9.569024784029 Eh   |
          | TOTAL FREE ENERGY          -9.569551228549 Eh   |
          | GRADIENT NORM               0.000546054220 Eh/Î± |
          | HOMO-LUMO GAP               3.046070436758 eV   |
           -------------------------------------------------

 * finished run on 2020/05/12 at 11:44:57.930
