   * xtb version 6.2.2 (9d81278992624c895f80dd42a50cac0aa55982e2) compiled by '@Darwin' on 04/03/2020
          program call               : xtb --input H2C1O2_4_S_0.input H2C1O2_4_S_0.xyz --ohess --molden --namespace H2C1O2_4_S_0 output.out
          number of atoms            :                     5
          number of electrons        :                    18
          charge                     :                     0
          spin                       :                   0.0

   ID    Z sym.   atoms
    1    8 O      1, 3
    2    6 C      2
    3    1 H      4, 5

          :  Hamiltonian                  GFN2-xTB          :
 * total energy  :   -11.0656574 Eh     change       -0.9923529E-09 Eh
 * total energy  :   -11.0841888 Eh     change       -0.1853141E-01 Eh
 * total energy  :   -11.0909275 Eh     change       -0.6738677E-02 Eh
 * total energy  :   -11.0921506 Eh     change       -0.1223153E-02 Eh
 * total energy  :   -11.0928534 Eh     change       -0.7027526E-03 Eh
 * total energy  :   -11.0936973 Eh     change       -0.8439088E-03 Eh
 * total energy  :   -11.0954244 Eh     change       -0.1727122E-02 Eh
 * total energy  :   -11.0967271 Eh     change       -0.1302719E-02 Eh
 * total energy  :   -11.0982089 Eh     change       -0.1481791E-02 Eh
 * total energy  :   -11.0987854 Eh     change       -0.5764692E-03 Eh
 * total energy  :   -11.1203910 Eh     change       -0.1179091E-01 Eh
 * total energy  :   -11.1238477 Eh     change       -0.3456723E-02 Eh
 * total energy  :   -11.1266163 Eh     change       -0.2768598E-02 Eh
 * total energy  :   -11.1275833 Eh     change       -0.9669552E-03 Eh
 * total energy  :   -11.1277743 Eh     change       -0.1910504E-03 Eh
 * total energy  :   -11.1278446 Eh     change       -0.7031811E-04 Eh
 * total energy  :   -11.1278683 Eh     change       -0.2362814E-04 Eh
 * total energy  :   -11.1278849 Eh     change       -0.1665907E-04 Eh
 * total energy  :   -11.1278878 Eh     change       -0.2889254E-05 Eh
   *** GEOMETRY OPTIMIZATION CONVERGED AFTER 27 ITERATIONS ***

 final structure:
================
5
 xtb: 6.2.2 (9d81278992624c895f80dd42a50cac0aa55982e2)
O         0.07789902889874    0.35290766543931   -0.55620877771499
C        -1.07369334550831    0.20835729976119   -0.64438173714886
O         0.94549733979134   -0.26746202070936    0.70840661055612
H        -1.79475641790396   -0.29741313386303   -0.01833694663711
H         1.84505339472219    0.00360918937190    0.51052085094484

          :  Hamiltonian                  GFN2-xTB          :
         :: gradient norm              0.000323499978 Eh/a0 ::
         :: HOMO-LUMO gap              3.239679519011 eV    ::
         :: SCC energy               -11.214787607335 Eh    ::
         :: -> dispersion             -0.001169004073 Eh    ::
         :: repulsion energy           0.086899794370 Eh    ::

    * Orbital Energies and Occupations

         #    Occupation            Energy/Eh            Energy/eV
      -------------------------------------------------------------
         1        2.0000           -0.7887826             -21.4639
         2        2.0000           -0.6880789             -18.7236
         3        2.0000           -0.6554273             -17.8351
         4        2.0000           -0.6165678             -16.7777
         5        2.0000           -0.6156870             -16.7537
         6        2.0000           -0.5521865             -15.0258
         7        2.0000           -0.5131351             -13.9631
         8        2.0000           -0.4362730             -11.8716
         9        2.0000           -0.4116236             -11.2008 (HOMO)
        10                         -0.2925677              -7.9612 (LUMO)
        11                         -0.2598996              -7.0722
        12                          0.1680754               4.5736
        13                          0.1763674               4.7992
        14                          0.7105904              19.3362
      -------------------------------------------------------------
                  HL-Gap            0.1190559 Eh            3.2397 eV

     #   Z        covCN         q      C6AA      Î±(0)
     1   8 O      1.409     0.041    14.185     5.073
     2   6 C      1.781     0.072    29.394     8.764
     3   8 O      1.359    -0.509    23.476     6.521
     4   1 H      0.926     0.110     1.698     2.038
     5   1 H      0.805     0.286     0.765     1.374

Wiberg/Mayer (AO) data.
largest (>0.10) Wiberg bond orders for each atom
          total WBO             WBO to atom ...

molecular dipole:
                 x           y           z       tot (Debye)
 q only:       -0.426       0.253      -0.540
   full:       -0.234       0.154      -0.325       1.090

 projected vibrational frequencies (cm-1)
eigval :       -0.00    -0.00    -0.00    -0.00     0.00     0.00
eigval :      281.53   424.83   626.81   867.44   925.29   999.11
eigval :     1853.45  3040.08  3632.56

   temp. (K)  partition function   enthalpy   heat capacity  entropy
                                   cal/mol     cal/K/mol   cal/K/mol   J/K/mol
  10.00  VIB   1.00                    0.000      0.000     -0.002
         ROT   62.5                   29.809      2.981     11.198
         INT   62.5                   29.809      2.981     11.196
         TR   0.186E+25               49.681      4.968     20.529
         TOT                          79.4904     7.9490    31.7254   132.7389

       T/K    H(0)-H(T)+PV         H(T)/Eh          T*S/Eh         G(T)/Eh
   ------------------------------------------------------------------------
    298.15    0.480057E-02    0.336219E-01    0.294080E-01    0.421391E-02
    120.00    0.157926E-02    0.304006E-01    0.991856E-02    0.204820E-01
    100.00    0.129416E-02    0.301155E-01    0.800582E-02    0.221097E-01
     80.00    0.102254E-02    0.298439E-01    0.616247E-02    0.236814E-01
     60.00    0.761632E-03    0.295829E-01    0.439689E-02    0.251861E-01
     40.00    0.506756E-03    0.293281E-01    0.272470E-02    0.266034E-01
     20.00    0.253352E-03    0.290747E-01    0.118674E-02    0.278879E-01
     10.00    0.126676E-03    0.289480E-01    0.505576E-03    0.284424E-01 (used)
   ------------------------------------------------------------------------

         :::::::::::::::::::::::::::::::::::::::::::::::::::::
         ::                  THERMODYNAMIC                  ::
         :::::::::::::::::::::::::::::::::::::::::::::::::::::
         :: total free energy         -11.099445405855 Eh   ::
         ::.................................................::
         :: total energy              -11.127887822900 Eh   ::
         :: zero point energy           0.028821316921 Eh   ::
         :: G(RRHO) w/o ZPVE           -0.000378899876 Eh   ::
         :: G(RRHO) contrib.            0.028442417044 Eh   ::
         :::::::::::::::::::::::::::::::::::::::::::::::::::::

           -------------------------------------------------
          | TOTAL ENERGY              -11.127887822900 Eh   |
          | TOTAL ENTHALPY            -11.098939829963 Eh   |
          | TOTAL FREE ENERGY         -11.099445405855 Eh   |
          | GRADIENT NORM               0.000322887013 Eh/Î± |
          | HOMO-LUMO GAP               3.239675997689 eV   |
           -------------------------------------------------

 * finished run on 2020/05/12 at 11:43:53.069
