   * xtb version 6.2.2 (9d81278992624c895f80dd42a50cac0aa55982e2) compiled by '@Darwin' on 04/03/2020
          program call               : xtb --input C3N1_1_S_1.input C3N1_1_S_1.xyz --ohess --molden --namespace C3N1_1_S_1 output.out
          number of atoms            :                     4
          number of electrons        :                    17
          charge                     :                     0
          spin                       :                   0.5

   ID    Z sym.   atoms
    1    6 C      1, 3, 4
    2    7 N      2

          :  Hamiltonian                  GFN2-xTB          :
 * total energy  :    -8.7958969 Eh     change        0.6617928E-08 Eh
 * total energy  :    -8.8337393 Eh     change       -0.3784241E-01 Eh
 * total energy  :    -8.8404783 Eh     change       -0.6738992E-02 Eh
 * total energy  :    -8.8426559 Eh     change       -0.2177590E-02 Eh
 * total energy  :    -8.8428078 Eh     change       -0.1519580E-03 Eh
 * total energy  :    -8.8430223 Eh     change       -0.2145095E-03 Eh
 * total energy  :    -8.8492415 Eh     change       -0.6219132E-02 Eh
 * total energy  :    -8.8674353 Eh     change       -0.1819387E-01 Eh
 * total energy  :    -8.9297286 Eh     change       -0.6229328E-01 Eh
 * total energy  :    -8.9289366 Eh     change        0.7920603E-03 Eh
 * total energy  :    -8.9830858 Eh     change       -0.1407697E-03 Eh
 * total energy  :    -8.9832263 Eh     change       -0.1404144E-03 Eh
 * total energy  :    -8.9832707 Eh     change       -0.4440379E-04 Eh
 * total energy  :    -8.9833661 Eh     change       -0.9540427E-04 Eh
 * total energy  :    -8.9834084 Eh     change       -0.4232449E-04 Eh
 * total energy  :    -8.9834354 Eh     change       -0.2701588E-04 Eh
 * total energy  :    -8.9834447 Eh     change       -0.9282114E-05 Eh
 * total energy  :    -8.9834476 Eh     change       -0.2933579E-05 Eh
 * total energy  :    -8.9834490 Eh     change       -0.1347032E-05 Eh
   *** GEOMETRY OPTIMIZATION CONVERGED AFTER 30 ITERATIONS ***

 final structure:
================
4
 xtb: 6.2.2 (9d81278992624c895f80dd42a50cac0aa55982e2)
C        -0.54121164853941   -0.74058873426066   -0.39320669859968
N         0.35583074666299    0.48377060299602    0.74319588677601
C        -0.62080136200887    0.64578188326982   -0.17214363111129
C         0.80618226388530   -0.38896275200518   -0.17784555706504

          :  Hamiltonian                  GFN2-xTB          :
         :: gradient norm              0.000573949479 Eh/a0 ::
         :: HOMO-LUMO gap              2.067141568868 eV    ::
         :: SCC energy                -9.094917529730 Eh    ::
         :: -> dispersion             -0.001671610791 Eh    ::
         :: repulsion energy           0.111468551896 Eh    ::

    * Orbital Energies and Occupations

         #    Occupation            Energy/Eh            Energy/eV
      -------------------------------------------------------------
         1        2.0000           -0.7677619             -20.8919
         2        2.0000           -0.6566469             -17.8683
         3        2.0000           -0.6451938             -17.5566
         4        2.0000           -0.5911524             -16.0861
         5        2.0000           -0.5540666             -15.0769
         6        2.0000           -0.5112633             -13.9122
         7        2.0000           -0.4793316             -13.0433
         8        1.9999           -0.4498112             -12.2400
         9        1.0001           -0.4325384             -11.7700 (HOMO)
        10                         -0.3565724              -9.7028 (LUMO)
        11                         -0.2938867              -7.9971
        12                         -0.2799430              -7.6176
        13                          0.0759849               2.0677
        14                          0.1305886               3.5535
        15                          0.1752465               4.7687
        16                          0.4899203              13.3314
      -------------------------------------------------------------
                  HL-Gap            0.0759660 Eh            2.0671 eV

     #   Z        covCN         q      C6AA      Î±(0)
     1   6 C      2.514    -0.028    28.832     8.772
     2   7 N      2.374    -0.070    22.736     7.080
     3   6 C      2.769     0.049    26.881     8.491
     4   6 C      2.769     0.049    26.892     8.493

Wiberg/Mayer (AO) data.
largest (>0.10) Wiberg bond orders for each atom
          total WBO             WBO to atom ...

molecular dipole:
                 x           y           z       tot (Debye)
 q only:       -0.002      -0.000      -0.109
   full:        0.152       0.215      -0.273       0.963

 projected vibrational frequencies (cm-1)
eigval :       -0.00    -0.00    -0.00     0.00     0.00     0.00
eigval :      307.24   593.46   723.72  1005.09  1263.65  1507.49

   temp. (K)  partition function   enthalpy   heat capacity  entropy
                                   cal/mol     cal/K/mol   cal/K/mol   J/K/mol
  10.00  VIB   1.00                    0.000      0.000     -0.001
         ROT   71.7                   29.809      2.981     11.472
         INT   71.7                   29.809      2.981     11.470
         TR   0.210E+25               49.681      4.968     20.778
         TOT                          79.4904     7.9490    32.2488   134.9289

       T/K    H(0)-H(T)+PV         H(T)/Eh          T*S/Eh         G(T)/Eh
   ------------------------------------------------------------------------
    298.15    0.450898E-02    0.168126E-01    0.292119E-01   -0.123993E-01
    120.00    0.155899E-02    0.138626E-01    0.999245E-02    0.387013E-02
    100.00    0.128444E-02    0.135880E-01    0.807695E-02    0.551107E-02
     80.00    0.101908E-02    0.133227E-01    0.622491E-02    0.709776E-02
     60.00    0.760943E-03    0.130645E-01    0.444606E-02    0.861847E-02
     40.00    0.506726E-03    0.128103E-01    0.275799E-02    0.100523E-01
     20.00    0.253352E-03    0.125569E-01    0.120341E-02    0.113535E-01
     10.00    0.126676E-03    0.124303E-01    0.513917E-03    0.119163E-01 (used)
   ------------------------------------------------------------------------

         :::::::::::::::::::::::::::::::::::::::::::::::::::::
         ::                  THERMODYNAMIC                  ::
         :::::::::::::::::::::::::::::::::::::::::::::::::::::
         :: total free energy          -8.971532623997 Eh   ::
         ::.................................................::
         :: total energy               -8.983448972819 Eh   ::
         :: zero point energy           0.012303589919 Eh   ::
         :: G(RRHO) w/o ZPVE           -0.000387241097 Eh   ::
         :: G(RRHO) contrib.            0.011916348822 Eh   ::
         :::::::::::::::::::::::::::::::::::::::::::::::::::::

           -------------------------------------------------
          | TOTAL ENERGY               -8.983448972819 Eh   |
          | TOTAL ENTHALPY             -8.971018706884 Eh   |
          | TOTAL FREE ENERGY          -8.971532623997 Eh   |
          | GRADIENT NORM               0.000573924841 Eh/Î± |
          | HOMO-LUMO GAP               2.067140233152 eV   |
           -------------------------------------------------

 * finished run on 2020/05/12 at 11:45:03.988
