 Gaussian 16, Revision B.01,
 Gaussian 16:  ES64L-G16RevB.01 20-Dec-2017

 ------------------------
 #P ROCCSD(T)/aug-cc-pvtz
 ------------------------

 -----
 Title
 -----
 Symbolic Z-matrix:
 Charge =  1 Multiplicity = 3

                         Standard orientation:
 ---------------------------------------------------------------------
 Center     Atomic      Atomic             Coordinates (Angstroms)
 Number     Number       Type             X           Y           Z
 ---------------------------------------------------------------------
      1          7           0        0.000000    0.000000    0.000000
 ---------------------------------------------------------------------

 SCF Done:  E(ROHF) =  -53.8846401799     A.U. after   14 cycles
 E2 =    -0.7768370854D-01 EUMP2 =    -0.53962323888406D+02
 CCSD(T)
 CCSD(T)= -0.53984885475D+02

 Unable to determine electronic state:  an orbital has unidentified symmetry.
 Alpha  occ. eigenvalues --  -16.32124  -1.61323  -1.10948  -1.10948
 Alpha virt. eigenvalues --   -0.46742  -0.12529  -0.07924  -0.07924  -0.07023
 Alpha virt. eigenvalues --    0.15599   0.15646   0.15646   0.15820   0.15820
 Alpha virt. eigenvalues --    0.36498   0.36498   0.40907   0.57558   1.06830

 Mulliken charges and spin densities:
               1          2
     1  N    1.000000   2.000000
 Sum of Mulliken charges =   1.00000   2.00000

 Dipole moment (field-independent basis, Debye):
    X=              0.0000    Y=              0.0000    Z=              0.0000  Tot=              0.0000
 Quadrupole moment (field-independent basis, Debye-Ang):
   XX=             -2.7797   YY=             -3.8456   ZZ=             -3.8456
   XY=              0.0000   XZ=             -0.0000   YZ=             -0.0000

 2-0=-53.9623239\MP4SDQ=-53.9813313\CCSD=-53.9831651\CCSD(T)=-53.984885
 Normal termination of Gaussian 16 at Mon Oct  5 21:37:16 2020.
