   * xtb version 6.2.2 (9d81278992624c895f80dd42a50cac0aa55982e2) compiled by '@Darwin' on 04/03/2020
          program call               : xtb --input H1C3_1_S_1.input H1C3_1_S_1.xyz --ohess --molden --namespace H1C3_1_S_1 output.out
          number of atoms            :                     4
          number of electrons        :                    13
          charge                     :                     0
          spin                       :                   0.5

   ID    Z sym.   atoms
    1    6 C      1-3
    2    1 H      4

          :  Hamiltonian                  GFN2-xTB          :
 * total energy  :    -6.5319340 Eh     change       -0.1666738E-09 Eh
 * total energy  :    -6.6121672 Eh     change       -0.8023315E-01 Eh
 * total energy  :    -6.6202196 Eh     change       -0.8052400E-02 Eh
 * total energy  :    -6.6356914 Eh     change       -0.1547179E-01 Eh
 * total energy  :    -6.6392990 Eh     change       -0.3607646E-02 Eh
 * total energy  :    -6.6281736 Eh     change        0.1112536E-01 Eh
 * total energy  :    -6.6460402 Eh     change       -0.1786651E-01 Eh
 * total energy  :    -6.6456293 Eh     change        0.4108833E-03 Eh
 * total energy  :    -6.6492398 Eh     change       -0.3610545E-02 Eh
 * total energy  :    -6.6503717 Eh     change       -0.1131899E-02 Eh
 * total energy  :    -6.6505548 Eh     change       -0.1830941E-03 Eh
 * total energy  :    -6.6525390 Eh     change       -0.1984204E-02 Eh
 * total energy  :    -6.6528224 Eh     change       -0.2833474E-03 Eh
 * total energy  :    -6.6529121 Eh     change       -0.8976379E-04 Eh
 * total energy  :    -6.6529678 Eh     change       -0.5571236E-04 Eh
 * total energy  :    -6.6530036 Eh     change       -0.3574910E-04 Eh
 * total energy  :    -6.6530099 Eh     change       -0.6360423E-05 Eh
 * total energy  :    -6.6530136 Eh     change       -0.3653203E-05 Eh
   *** GEOMETRY OPTIMIZATION CONVERGED AFTER 18 ITERATIONS ***

 final structure:
================
4
 xtb: 6.2.2 (9d81278992624c895f80dd42a50cac0aa55982e2)
C         0.55564631803770    0.01586032864040    0.00667229073364
C        -0.68798476500155   -0.02207871961401   -0.01005238945046
C         1.87247580222091    0.05117972560633    0.03064006723558
H        -1.74013835525705   -0.04496133463272   -0.02725896851876

          :  Hamiltonian                  GFN2-xTB          :
         :: gradient norm              0.000699324186 Eh/a0 ::
         :: HOMO-LUMO gap              0.000027106467 eV    ::
         :: SCC energy                -6.813380556391 Eh    ::
         :: -> dispersion             -0.001276392539 Eh    ::
         :: repulsion energy           0.160367012282 Eh    ::

    * Orbital Energies and Occupations

         #    Occupation            Energy/Eh            Energy/eV
      -------------------------------------------------------------
         1        2.0000           -0.6549975             -17.8234
         2        2.0000           -0.6237681             -16.9736
         3        2.0000           -0.5499599             -14.9652
         4        2.0000           -0.4823129             -13.1244
         5        2.0000           -0.4823125             -13.1244
         6        2.0000           -0.4301210             -11.7042
         7        0.5001           -0.3577362              -9.7345 (HOMO)
         8        0.4999           -0.3577352              -9.7345 (LUMO)
         9                         -0.1498141              -4.0766
        10                         -0.1498092              -4.0765
        11                          0.0665071               1.8098
        12                          0.4508577              12.2685
        13                          1.2743035              34.6756
Molecule has the following symmetry elements: (Cinf) (sigma)
It seems to be the Cinfv point group
      -------------------------------------------------------------
                  HL-Gap            0.0000010 Eh            0.0000 eV

     #   Z        covCN         q      C6AA      Î±(0)
     1   6 C      1.962     0.057    29.616     8.788
     2   6 C      1.910    -0.027    31.836     9.112
     3   6 C      0.982    -0.138    40.388    10.675
     4   1 H      0.928     0.108     1.718     2.049

Wiberg/Mayer (AO) data.
largest (>0.10) Wiberg bond orders for each atom
          total WBO             WBO to atom ...

molecular dipole:
                 x           y           z       tot (Debye)
 q only:       -0.744      -0.020      -0.012
   full:       -1.320      -0.035      -0.022       3.357

   temp. (K)  partition function   enthalpy   heat capacity  entropy
                                   cal/mol     cal/K/mol   cal/K/mol   J/K/mol
  10.00  VIB   1.00                    0.000      0.000     -0.004
         ROT   18.4                   19.873      1.987      7.778
         INT   18.4                   19.873      1.987      7.775
         TR   0.134E+25               49.681      4.968     19.882
         TOT                          69.5541     6.9554    27.6571   115.7172

       T/K    H(0)-H(T)+PV         H(T)/Eh          T*S/Eh         G(T)/Eh
   ------------------------------------------------------------------------
    298.15    0.463028E-02    0.231044E-01    0.264127E-01   -0.330828E-02
    120.00    0.143154E-02    0.199057E-01    0.872374E-02    0.111819E-01
    100.00    0.115734E-02    0.196315E-01    0.702017E-02    0.126113E-01
     80.00    0.903843E-03    0.193780E-01    0.539023E-02    0.139877E-01
     60.00    0.668167E-03    0.191423E-01    0.383961E-02    0.153027E-01
     40.00    0.443474E-03    0.189176E-01    0.237771E-02    0.165399E-01
     20.00    0.221683E-03    0.186958E-01    0.103514E-02    0.176607E-01
     10.00    0.110842E-03    0.185850E-01    0.440744E-03    0.181442E-01 (used)
   ------------------------------------------------------------------------

         :::::::::::::::::::::::::::::::::::::::::::::::::::::
         ::                  THERMODYNAMIC                  ::
         :::::::::::::::::::::::::::::::::::::::::::::::::::::
         :: total free energy          -6.634869381502 Eh   ::
         ::.................................................::
         :: total energy               -6.653013595120 Eh   ::
         :: zero point energy           0.018474115711 Eh   ::
         :: G(RRHO) w/o ZPVE           -0.000329902093 Eh   ::
         :: G(RRHO) contrib.            0.018144213618 Eh   ::
         :::::::::::::::::::::::::::::::::::::::::::::::::::::

           -------------------------------------------------
          | TOTAL ENERGY               -6.653013595120 Eh   |
          | TOTAL ENTHALPY             -6.634428637896 Eh   |
          | TOTAL FREE ENERGY          -6.634869381502 Eh   |
          | GRADIENT NORM               0.000699278906 Eh/Î± |
          | HOMO-LUMO GAP               0.000027108300 eV   |
           -------------------------------------------------

 * finished run on 2020/05/12 at 11:43:51.444
