   * xtb version 6.2.2 (9d81278992624c895f80dd42a50cac0aa55982e2) compiled by '@Darwin' on 04/03/2020
          program call               : xtb --input N2O1_1_S_2.input N2O1_1_S_2.xyz --ohess --molden --namespace N2O1_1_S_2 output.out
          number of atoms            :                     3
          number of electrons        :                    16
          charge                     :                     0
          spin                       :                   1.0

   ID    Z sym.   atoms
    1    7 N      1, 2
    2    8 O      3

          :  Hamiltonian                  GFN2-xTB          :
 * total energy  :    -9.6140692 Eh     change       -0.1928182E-09 Eh
 * total energy  :    -9.6677900 Eh     change       -0.5372081E-01 Eh
 * total energy  :    -9.6692863 Eh     change       -0.1496265E-02 Eh
 * total energy  :    -9.6772959 Eh     change       -0.8009595E-02 Eh
 * total energy  :    -9.6775821 Eh     change       -0.2862606E-03 Eh
 * total energy  :    -9.6775952 Eh     change       -0.1309897E-04 Eh
 * total energy  :    -9.6775954 Eh     change       -0.1425664E-06 Eh
   *** GEOMETRY OPTIMIZATION CONVERGED AFTER 7 ITERATIONS ***

 final structure:
================
3
 xtb: 6.2.2 (9d81278992624c895f80dd42a50cac0aa55982e2)
N         0.00351328892633    0.37772702178880    0.00000000000000
N         1.07063475403396   -0.17197423338636    0.00000000000000
O        -1.07414904296029   -0.20575278840244    0.00000000000000

          :  Hamiltonian                  GFN2-xTB          :
         :: gradient norm              0.000279766843 Eh/a0 ::
         :: HOMO-LUMO gap              1.813389141979 eV    ::
         :: SCC energy                -9.731884035260 Eh    ::
         :: -> dispersion             -0.000709362033 Eh    ::
         :: repulsion energy           0.054288677947 Eh    ::

    * Orbital Energies and Occupations

         #    Occupation            Energy/Eh            Energy/eV
      -------------------------------------------------------------
         1        2.0000           -0.8040874             -21.8803
         2        2.0000           -0.7418180             -20.1859
         3        2.0000           -0.6582363             -17.9115
         4        2.0000           -0.6488137             -17.6551
         5        2.0000           -0.6213458             -16.9077
         6        2.0000           -0.5411622             -14.7258
         7        2.0000           -0.4967722             -13.5179
         8        1.0000           -0.4754137             -12.9367
         9        1.0000           -0.3824400             -10.4067 (HOMO)
        10                         -0.3157992              -8.5933 (LUMO)
        11                          0.1810170               4.9257
        12                          0.4424070              12.0385
      -------------------------------------------------------------
                  HL-Gap            0.0666408 Eh            1.8134 eV

     #   Z        covCN         q      C6AA      Î±(0)
     1   7 N      1.904     0.307    16.938     6.102
     2   7 N      0.996    -0.114    23.066     6.902
     3   8 O      0.938    -0.192    17.913     5.676

Wiberg/Mayer (AO) data.
largest (>0.10) Wiberg bond orders for each atom
          total WBO             WBO to atom ...

molecular dipole:
                 x           y           z       tot (Debye)
 q only:        0.161       0.331      -0.000
   full:        0.089       0.369      -0.000       0.966

 projected vibrational frequencies (cm-1)
eigval :       -0.00    -0.00    -0.00     0.00     0.00     0.00
eigval :      616.13  1389.95  1692.98

   temp. (K)  partition function   enthalpy   heat capacity  entropy
                                   cal/mol     cal/K/mol   cal/K/mol   J/K/mol
  10.00  VIB   1.00                    0.000      0.000     -0.000
         ROT   29.5                   29.809      2.981      9.705
         INT   29.5                   29.809      2.981      9.705
         TR   0.174E+25               49.681      4.968     20.396
         TOT                          79.4904     7.9490    30.1014   125.9444

       T/K    H(0)-H(T)+PV         H(T)/Eh          T*S/Eh         G(T)/Eh
   ------------------------------------------------------------------------
    298.15    0.393807E-02    0.123652E-01    0.273330E-01   -0.149678E-01
    120.00    0.152185E-02    0.994894E-02    0.953454E-02    0.414398E-03
    100.00    0.126716E-02    0.969425E-02    0.771336E-02    0.198089E-02
     80.00    0.101345E-02    0.944054E-02    0.594431E-02    0.349623E-02
     60.00    0.760057E-03    0.918715E-02    0.423961E-02    0.494753E-02
     40.00    0.506704E-03    0.893379E-02    0.262102E-02    0.631278E-02
     20.00    0.253352E-03    0.868044E-02    0.113495E-02    0.754549E-02
     10.00    0.126676E-03    0.855377E-02    0.479697E-03    0.807407E-02 (used)
   ------------------------------------------------------------------------

         :::::::::::::::::::::::::::::::::::::::::::::::::::::
         ::                  THERMODYNAMIC                  ::
         :::::::::::::::::::::::::::::::::::::::::::::::::::::
         :: total free energy          -9.669521289078 Eh   ::
         ::.................................................::
         :: total energy               -9.677595357680 Eh   ::
         :: zero point energy           0.008427089534 Eh   ::
         :: G(RRHO) w/o ZPVE           -0.000353020932 Eh   ::
         :: G(RRHO) contrib.            0.008074068603 Eh   ::
         :::::::::::::::::::::::::::::::::::::::::::::::::::::

           -------------------------------------------------
          | TOTAL ENERGY               -9.677595357680 Eh   |
          | TOTAL ENTHALPY             -9.669041592130 Eh   |
          | TOTAL FREE ENERGY          -9.669521289078 Eh   |
          | GRADIENT NORM               0.000280086598 Eh/Î± |
          | HOMO-LUMO GAP               1.813389307824 eV   |
           -------------------------------------------------

 * finished run on 2020/05/12 at 11:43:54.707
