   * xtb version 6.2.2 (9d81278992624c895f80dd42a50cac0aa55982e2) compiled by '@Darwin' on 04/03/2020
          program call               : xtb --input H3C1N1_3_S_0.input H3C1N1_3_S_0.xyz --ohess --molden --namespace H3C1N1_3_S_0 output.out
          number of atoms            :                     5
          number of electrons        :                    12
          charge                     :                     0
          spin                       :                   0.0

   ID    Z sym.   atoms
    1    6 C      1
    2    7 N      2
    3    1 H      3-5

          :  Hamiltonian                  GFN2-xTB          :
 * total energy  :    -6.2934826 Eh     change        0.3022746E-09 Eh
 * total energy  :    -6.2982594 Eh     change       -0.4776805E-02 Eh
 * total energy  :    -6.3002707 Eh     change       -0.2011303E-02 Eh
 * total energy  :    -6.3011303 Eh     change       -0.8596677E-03 Eh
 * total energy  :    -6.3015821 Eh     change       -0.4517988E-03 Eh
 * total energy  :    -6.3016760 Eh     change       -0.9383780E-04 Eh
 * total energy  :    -6.3016967 Eh     change       -0.2076401E-04 Eh
 * total energy  :    -6.3016980 Eh     change       -0.1260692E-05 Eh
   *** GEOMETRY OPTIMIZATION CONVERGED AFTER 8 ITERATIONS ***

 final structure:
================
5
 xtb: 6.2.2 (9d81278992624c895f80dd42a50cac0aa55982e2)
C         1.50038310293480   -0.04868101580703   -0.14000398173103
N        -0.12960335251795    0.00420548583290    0.01209385891894
H        -0.37628673463087   -0.19736875559106    0.98063725447610
H        -0.45395543147432    0.93580431275688   -0.24574403811064
H        -0.54053858431166   -0.69396002719169   -0.60698409355337

          :  Hamiltonian                  GFN2-xTB          :
         :: gradient norm              0.000219930955 Eh/a0 ::
         :: HOMO-LUMO gap              0.000000228969 eV    ::
         :: SCC energy                -6.357166539849 Eh    ::
         :: -> dispersion             -0.000977785714 Eh    ::
         :: repulsion energy           0.055468533340 Eh    ::

    * Orbital Energies and Occupations

         #    Occupation            Energy/Eh            Energy/eV
      -------------------------------------------------------------
         1        2.0000           -0.6605076             -17.9733
         2        2.0000           -0.5719235             -15.5628
         3        2.0000           -0.5719235             -15.5628
         4        2.0000           -0.5613402             -15.2748
         5        2.0000           -0.4063823             -11.0582
         6        1.0000           -0.2177740              -5.9259 (HOMO)
         7        1.0000           -0.2177740              -5.9259 (LUMO)
         8                         -0.0672736              -1.8306
         9                          0.0249140               0.6779
        10                          0.1542955               4.1986
        11                          0.1542958               4.1986
      -------------------------------------------------------------
                  HL-Gap            0.0000000 Eh            0.0000 eV

     #   Z        covCN         q      C6AA      Î±(0)
     1   6 C      0.868    -0.440    51.786    12.016
     2   7 N      3.447    -0.152    24.270     7.317
     3   1 H      0.860     0.197     1.120     1.658
     4   1 H      0.860     0.197     1.120     1.658
     5   1 H      0.860     0.197     1.120     1.658

Wiberg/Mayer (AO) data.
largest (>0.10) Wiberg bond orders for each atom
Molecule has the following symmetry elements: (C3) 3*(sigma)

molecular dipole:
                 x           y           z       tot (Debye)
 q only:       -1.723       0.056       0.161
   full:       -2.307       0.075       0.215       5.891

 projected vibrational frequencies (cm-1)
eigval :       -0.00    -0.00    -0.00     0.00     0.00     0.00
eigval :      613.44   631.44   631.48  1150.59  1469.45  1469.58
eigval :     3297.31  3300.91  3301.07

   temp. (K)  partition function   enthalpy   heat capacity  entropy
                                   cal/mol     cal/K/mol   cal/K/mol   J/K/mol
  10.00  VIB   1.00                    0.000      0.000     -0.000
         ROT   5.76                   29.809      2.981      6.461
         INT   5.76                   29.809      2.981      6.460
         TR   0.930E+24               49.681      4.968     19.157
         TOT                          79.4904     7.9490    25.6176   107.1840

       T/K    H(0)-H(T)+PV         H(T)/Eh          T*S/Eh         G(T)/Eh
   ------------------------------------------------------------------------
    298.15    0.424803E-02    0.403918E-01    0.256090E-01    0.147828E-01
    120.00    0.152487E-02    0.376686E-01    0.868055E-02    0.289881E-01
    100.00    0.126782E-02    0.374116E-01    0.699958E-02    0.304120E-01
     80.00    0.101352E-02    0.371573E-01    0.537277E-02    0.317845E-01
     60.00    0.760059E-03    0.369038E-01    0.381090E-02    0.330929E-01
     40.00    0.506704E-03    0.366505E-01    0.233521E-02    0.343153E-01
     20.00    0.253352E-03    0.363971E-01    0.992044E-03    0.354051E-01
     10.00    0.126676E-03    0.362704E-01    0.408242E-03    0.358622E-01 (used)
   ------------------------------------------------------------------------

         :::::::::::::::::::::::::::::::::::::::::::::::::::::
         ::                  THERMODYNAMIC                  ::
         :::::::::::::::::::::::::::::::::::::::::::::::::::::
         :: total free energy          -6.265835801308 Eh   ::
         ::.................................................::
         :: total energy               -6.301697988378 Eh   ::
         :: zero point energy           0.036143753237 Eh   ::
         :: G(RRHO) w/o ZPVE           -0.000281566166 Eh   ::
         :: G(RRHO) contrib.            0.035862187070 Eh   ::
         :::::::::::::::::::::::::::::::::::::::::::::::::::::

           -------------------------------------------------
          | TOTAL ENERGY               -6.301697988378 Eh   |
          | TOTAL ENTHALPY             -6.265427559126 Eh   |
          | TOTAL FREE ENERGY          -6.265835801308 Eh   |
          | GRADIENT NORM               0.000219929698 Eh/Î± |
          | HOMO-LUMO GAP               0.000000281644 eV   |
           -------------------------------------------------

 * finished run on 2020/05/12 at 11:44:28.687
