   * xtb version 6.2.2 (9d81278992624c895f80dd42a50cac0aa55982e2) compiled by '@Darwin' on 04/03/2020
          program call               : xtb --input C4N1_35_S_1.input C4N1_35_S_1.xyz --ohess --molden --namespace C4N1_35_S_1 output.out
          number of atoms            :                     5
          number of electrons        :                    21
          charge                     :                     0
          spin                       :                   0.5

   ID    Z sym.   atoms
    1    6 C      1, 2, 4, 5
    2    7 N      3

          :  Hamiltonian                  GFN2-xTB          :
 * total energy  :   -10.9388762 Eh     change       -0.3939824E-08 Eh
 * total energy  :   -10.9877428 Eh     change       -0.4886664E-01 Eh
 * total energy  :   -10.9968018 Eh     change       -0.9059026E-02 Eh
 * total energy  :   -11.0285424 Eh     change       -0.3174055E-01 Eh
 * total energy  :   -11.0345199 Eh     change       -0.5977489E-02 Eh
 * total energy  :   -11.0386712 Eh     change       -0.4151294E-02 Eh
 * total energy  :   -11.0412343 Eh     change       -0.2563133E-02 Eh
 * total energy  :   -11.0410703 Eh     change        0.1640554E-03 Eh
 * total energy  :   -11.0426334 Eh     change       -0.1563121E-02 Eh
 * total energy  :   -11.0428473 Eh     change       -0.2139071E-03 Eh
 * total energy  :   -11.0430480 Eh     change       -0.2007179E-03 Eh
 * total energy  :   -11.0431465 Eh     change       -0.9848509E-04 Eh
 * total energy  :   -11.0432892 Eh     change       -0.1426897E-03 Eh
 * total energy  :   -11.0433218 Eh     change       -0.3261813E-04 Eh
 * total energy  :   -11.0433266 Eh     change       -0.4763999E-05 Eh
 * total energy  :   -11.0433276 Eh     change       -0.1074793E-05 Eh
   *** GEOMETRY OPTIMIZATION CONVERGED AFTER 16 ITERATIONS ***

 final structure:
================
5
 xtb: 6.2.2 (9d81278992624c895f80dd42a50cac0aa55982e2)
C        -1.66406444422444    0.01692299394809   -0.03126768480790
C        -0.49167216818142   -0.29670834897915   -0.72704954812261
N         0.73106376593220   -0.00425678969976    0.01277568904673
C        -0.51487569823567    0.15717757520845    0.75401685965160
C         1.93954754470933    0.12686456952237   -0.00847431576783

          :  Hamiltonian                  GFN2-xTB          :
         :: gradient norm              0.000833594449 Eh/a0 ::
         :: HOMO-LUMO gap              1.257863858318 eV    ::
         :: SCC energy               -11.202011005188 Eh    ::
         :: -> dispersion             -0.002875190615 Eh    ::
         :: repulsion energy           0.158683413500 Eh    ::

    * Orbital Energies and Occupations

         #    Occupation            Energy/Eh            Energy/eV
      -------------------------------------------------------------
         1        2.0000           -0.7664485             -20.8561
         2        2.0000           -0.7210852             -19.6217
         3        2.0000           -0.6667283             -18.1426
         4        2.0000           -0.6433985             -17.5078
         5        2.0000           -0.6064018             -16.5010
         6        2.0000           -0.5708305             -15.5331
         7        2.0000           -0.5002976             -13.6138
         8        2.0000           -0.4907089             -13.3529
         9        2.0000           -0.4702213             -12.7954
        10        2.0000           -0.4402348             -11.9794
        11        1.0000           -0.4068355             -11.0706 (HOMO)
        12                         -0.3606099              -9.8127 (LUMO)
        13                         -0.3196460              -8.6980
        14                         -0.2727394              -7.4216
        15                         -0.2284613              -6.2167
        16                         -0.0513710              -1.3979
        17                          0.0725722               1.9748
        18                          0.1713356               4.6623
        19                          0.3844947              10.4626
Molecule has the following symmetry elements: (sigma)
It seems to be the Cs point group
        20                          0.6862535              18.6739
      -------------------------------------------------------------
                  HL-Gap            0.0462255 Eh            1.2579 eV

     #   Z        covCN         q      C6AA      Î±(0)
     1   6 C      1.967    -0.107    34.019     9.419
     2   6 C      2.861     0.043    27.038     8.523
     3   7 N      2.731     0.145    18.790     6.438
     4   6 C      2.861     0.043    27.038     8.523
     5   6 C      0.913    -0.124    39.396    10.505

Wiberg/Mayer (AO) data.
largest (>0.10) Wiberg bond orders for each atom
          total WBO             WBO to atom ...

molecular dipole:
                 x           y           z       tot (Debye)
 q only:        0.001      -0.045       0.014
   full:        0.252      -0.088       0.031       0.683

 projected vibrational frequencies (cm-1)
eigval :       -0.00    -0.00    -0.00    -0.00     0.00     0.00
eigval :     -191.69    99.95   308.32   451.00   676.21   791.15
eigval :     1028.04  1462.51  1749.22

   temp. (K)  partition function   enthalpy   heat capacity  entropy
                                   cal/mol     cal/K/mol   cal/K/mol   J/K/mol
  10.00  VIB   1.00                    0.000      0.000     -0.032
         ROT   178.                   29.809      2.981     13.277
         INT   178.                   29.809      2.981     13.245
         TR   0.290E+25               49.681      4.968     21.419
         TOT                          79.4906     7.9493    34.6645   145.0363

       T/K    H(0)-H(T)+PV         H(T)/Eh          T*S/Eh         G(T)/Eh
   ------------------------------------------------------------------------
    298.15    0.542852E-02    0.203879E-01    0.322669E-01   -0.118791E-01
    120.00    0.176307E-02    0.167224E-01    0.108045E-01    0.591787E-02
    100.00    0.142871E-02    0.163881E-01    0.870051E-02    0.768755E-02
     80.00    0.111000E-02    0.160693E-01    0.667727E-02    0.939208E-02
     60.00    0.806560E-03    0.157659E-01    0.474709E-02    0.110188E-01
     40.00    0.519582E-03    0.154789E-01    0.293258E-02    0.125464E-01
     20.00    0.253696E-03    0.152130E-01    0.128207E-02    0.139310E-01
     10.00    0.126676E-03    0.150860E-01    0.552414E-03    0.145336E-01 (used)
   ------------------------------------------------------------------------

         :::::::::::::::::::::::::::::::::::::::::::::::::::::
         ::                  THERMODYNAMIC                  ::
         :::::::::::::::::::::::::::::::::::::::::::::::::::::
         :: total free energy         -11.028794031715 Eh   ::
         ::.................................................::
         :: total energy              -11.043327637384 Eh   ::
         :: zero point energy           0.014959343347 Eh   ::
         :: G(RRHO) w/o ZPVE           -0.000425737677 Eh   ::
         :: G(RRHO) contrib.            0.014533605669 Eh   ::
         :::::::::::::::::::::::::::::::::::::::::::::::::::::

           -------------------------------------------------
          | TOTAL ENERGY              -11.043327637384 Eh   |
          | TOTAL ENTHALPY            -11.028241617763 Eh   |
          | TOTAL FREE ENERGY         -11.028794031715 Eh   |
          | GRADIENT NORM               0.000833529998 Eh/Î± |
          | HOMO-LUMO GAP               1.257861136153 eV   |
           -------------------------------------------------

 * finished run on 2020/05/12 at 11:44:13.853
