   * xtb version 6.2.2 (9d81278992624c895f80dd42a50cac0aa55982e2) compiled by '@Darwin' on 04/03/2020
          program call               : xtb --input C3O1_0_S_0.input C3O1_0_S_0.xyz --ohess --molden --namespace C3O1_0_S_0 output.out
          number of atoms            :                     4
          number of electrons        :                    18
          charge                     :                     0
          spin                       :                   0.0

   ID    Z sym.   atoms
    1    6 C      1-3
    2    8 O      4

          :  Hamiltonian                  GFN2-xTB          :
 * total energy  :    -9.9978272 Eh     change       -0.9628671E-09 Eh
 * total energy  :   -10.0446869 Eh     change       -0.4685970E-01 Eh
 * total energy  :   -10.0516300 Eh     change       -0.6943148E-02 Eh
 * total energy  :   -10.0550862 Eh     change       -0.3456210E-02 Eh
 * total energy  :   -10.0558954 Eh     change       -0.8091610E-03 Eh
 * total energy  :   -10.0565655 Eh     change       -0.6700644E-03 Eh
 * total energy  :   -10.1266379 Eh     change       -0.7007245E-01 Eh
 * total energy  :   -10.1292894 Eh     change       -0.2651451E-02 Eh
 * total energy  :   -10.2043478 Eh     change       -0.7505843E-01 Eh
 * total energy  :   -10.2039571 Eh     change        0.3907232E-03 Eh
 * total energy  :   -10.3090732 Eh     change       -0.6277453E-03 Eh
 * total energy  :   -10.3101819 Eh     change       -0.1108734E-02 Eh
 * total energy  :   -10.3111318 Eh     change       -0.9498971E-03 Eh
 * total energy  :   -10.3115002 Eh     change       -0.3683491E-03 Eh
 * total energy  :   -10.3119486 Eh     change       -0.4484161E-03 Eh
 * total energy  :   -10.3122301 Eh     change       -0.2815334E-03 Eh
 * total energy  :   -10.3123433 Eh     change       -0.1131720E-03 Eh
 * total energy  :   -10.3123603 Eh     change       -0.1694240E-04 Eh
 * total energy  :   -10.3123622 Eh     change       -0.1955956E-05 Eh
   *** GEOMETRY OPTIMIZATION CONVERGED AFTER 42 ITERATIONS ***

 final structure:
================
4
 xtb: 6.2.2 (9d81278992624c895f80dd42a50cac0aa55982e2)
C        -1.79509059730975    0.55748666156949   -0.07429840896786
C         0.64690082902348   -0.20031244691178    0.02663528388455
C        -0.59152390326424    0.18410244093961   -0.02443221420801
O         1.73971367155052   -0.54127665559732    0.07209533929132

          :  Hamiltonian                  GFN2-xTB          :
         :: gradient norm              0.000664916849 Eh/a0 ::
         :: HOMO-LUMO gap              2.745040407636 eV    ::
         :: SCC energy               -10.509339239539 Eh    ::
         :: -> dispersion             -0.001626870729 Eh    ::
         :: repulsion energy           0.196977112669 Eh    ::

    * Orbital Energies and Occupations

         #    Occupation            Energy/Eh            Energy/eV
      -------------------------------------------------------------
         1        2.0000           -0.8087009             -22.0059
         2        2.0000           -0.6968648             -18.9627
         3        2.0000           -0.6493806             -17.6705
         4        2.0000           -0.6346024             -17.2684
         5        2.0000           -0.6346023             -17.2684
         6        2.0000           -0.6043234             -16.4445
         7        2.0000           -0.4672260             -12.7139
         8        2.0000           -0.4672260             -12.7139
         9        2.0000           -0.4338299             -11.8051 (HOMO)
        10                         -0.3329508              -9.0601 (LUMO)
        11                         -0.3329507              -9.0601
        12                         -0.1354520              -3.6858
        13                         -0.1354517              -3.6858
        14                          0.1549420               4.2162
        15                          0.7700486              20.9541
        16                          1.3844667              37.6733
      -------------------------------------------------------------
                  HL-Gap            0.1008791 Eh            2.7451 eV

     #   Z        covCN         q      C6AA      Î±(0)
     1   6 C      0.982    -0.121    39.832    10.601
     2   6 C      1.838     0.296    24.453     7.989
     3   6 C      1.962    -0.034    31.984     9.133
     4   8 O      0.856    -0.141    17.127     5.549

Wiberg/Mayer (AO) data.
largest (>0.10) Wiberg bond orders for each atom
          total WBO             WBO to atom ...

molecular dipole:
                 x           y           z       tot (Debye)
 q only:        0.350      -0.108       0.014
   full:        0.837      -0.259       0.034       2.229

   temp. (K)  partition function   enthalpy   heat capacity  entropy
                                   cal/mol     cal/K/mol   cal/K/mol   J/K/mol
  10.00  VIB   1.00                    0.000      0.000     -0.013
         ROT   43.2                   19.873      1.987      9.472
         INT   43.2                   19.873      1.987      9.459
         TR   0.223E+25               49.681      4.968     20.895
         TOT                          69.5541     6.9554    30.3533   126.9982

       T/K    H(0)-H(T)+PV         H(T)/Eh          T*S/Eh         G(T)/Eh
   ------------------------------------------------------------------------
    298.15    0.490090E-02    0.202860E-01    0.284025E-01   -0.811657E-02
    120.00    0.154893E-02    0.169340E-01    0.942395E-02    0.751003E-02
    100.00    0.124158E-02    0.166266E-01    0.757350E-02    0.905312E-02
     80.00    0.952909E-03    0.163380E-01    0.580156E-02    0.105364E-01
     60.00    0.686725E-03    0.160718E-01    0.412191E-02    0.119499E-01
     40.00    0.445803E-03    0.158309E-01    0.255308E-02    0.132778E-01
     20.00    0.221687E-03    0.156067E-01    0.112129E-02    0.144854E-01
     10.00    0.110842E-03    0.154959E-01    0.483711E-03    0.150122E-01 (used)
   ------------------------------------------------------------------------

         :::::::::::::::::::::::::::::::::::::::::::::::::::::
         ::                  THERMODYNAMIC                  ::
         :::::::::::::::::::::::::::::::::::::::::::::::::::::
         :: total free energy         -10.297350030638 Eh   ::
         ::.................................................::
         :: total energy              -10.312362209293 Eh   ::
         :: zero point energy           0.015385047663 Eh   ::
         :: G(RRHO) w/o ZPVE           -0.000372869008 Eh   ::
         :: G(RRHO) contrib.            0.015012178655 Eh   ::
         :::::::::::::::::::::::::::::::::::::::::::::::::::::

           -------------------------------------------------
          | TOTAL ENERGY              -10.312362209293 Eh   |
          | TOTAL ENTHALPY            -10.296866320117 Eh   |
          | TOTAL FREE ENERGY         -10.297350030638 Eh   |
          | GRADIENT NORM               0.000664537855 Eh/Î± |
          | HOMO-LUMO GAP               2.745060808243 eV   |
           -------------------------------------------------

 * finished run on 2020/05/12 at 11:45:17.336
