   * xtb version 6.2.2 (9d81278992624c895f80dd42a50cac0aa55982e2) compiled by '@Darwin' on 04/03/2020
          program call               : xtb --input C4N1_41_S_3.input C4N1_41_S_3.xyz --ohess --molden --namespace C4N1_41_S_3 output.out
          number of atoms            :                     5
          number of electrons        :                    21
          charge                     :                     0
          spin                       :                   1.5

   ID    Z sym.   atoms
    1    6 C      1, 2, 4, 5
    2    7 N      3

          :  Hamiltonian                  GFN2-xTB          :
 * total energy  :   -10.9139540 Eh     change       -0.1824585E-09 Eh
 * total energy  :   -10.9489321 Eh     change       -0.3497810E-01 Eh
 * total energy  :   -10.9813038 Eh     change       -0.3237166E-01 Eh
 * total energy  :   -10.9980519 Eh     change       -0.1674810E-01 Eh
 * total energy  :   -11.0084115 Eh     change       -0.1035964E-01 Eh
 * total energy  :   -11.0112534 Eh     change       -0.2841854E-02 Eh
 * total energy  :   -11.0129568 Eh     change       -0.1703404E-02 Eh
 * total energy  :   -11.0142572 Eh     change       -0.1300394E-02 Eh
 * total energy  :   -11.0159495 Eh     change       -0.1692297E-02 Eh
 * total energy  :   -11.0199233 Eh     change       -0.3973868E-02 Eh
 * total energy  :   -11.0345140 Eh     change       -0.1789729E-02 Eh
 * total energy  :   -11.0366527 Eh     change       -0.2138655E-02 Eh
 * total energy  :   -11.0376343 Eh     change       -0.9816186E-03 Eh
 * total energy  :   -11.0383605 Eh     change       -0.7262016E-03 Eh
 * total energy  :   -11.0388737 Eh     change       -0.5132428E-03 Eh
 * total energy  :   -11.0389070 Eh     change       -0.3322665E-04 Eh
 * total energy  :   -11.0389325 Eh     change       -0.2558594E-04 Eh
 * total energy  :   -11.0389376 Eh     change       -0.5078781E-05 Eh
 * total energy  :   -11.0389411 Eh     change       -0.3517535E-05 Eh
   *** GEOMETRY OPTIMIZATION CONVERGED AFTER 27 ITERATIONS ***

 final structure:
================
5
 xtb: 6.2.2 (9d81278992624c895f80dd42a50cac0aa55982e2)
C         1.29103906452206   -0.31996427944069    0.09350550864845
C         0.19448611780022   -1.02764319572839    0.38125066149678
N        -0.84949793603423    0.94341933142578   -0.33633694546458
C        -1.06512539704021   -0.28377994790238    0.12858595200106
C         0.42909815075216    0.68796809164568   -0.26700417668171

          :  Hamiltonian                  GFN2-xTB          :
         :: gradient norm              0.000988844577 Eh/a0 ::
         :: HOMO-LUMO gap              2.726716079097 eV    ::
         :: SCC energy               -11.205152981868 Eh    ::
         :: -> dispersion             -0.002740995844 Eh    ::
         :: repulsion energy           0.166211818269 Eh    ::

    * Orbital Energies and Occupations

         #    Occupation            Energy/Eh            Energy/eV
      -------------------------------------------------------------
         1        2.0000           -0.7452854             -20.2802
         2        2.0000           -0.6876271             -18.7113
         3        2.0000           -0.6439259             -17.5221
         4        2.0000           -0.5943640             -16.1735
         5        2.0000           -0.5800288             -15.7834
         6        2.0000           -0.5755642             -15.6619
         7        2.0000           -0.5043274             -13.7234
         8        2.0000           -0.4640768             -12.6282
         9        2.0000           -0.4503188             -12.2538
        10        1.0000           -0.4154684             -11.3055
        11        1.0000           -0.4150643             -11.2945
        12        1.0000           -0.3950727             -10.7505 (HOMO)
        13                         -0.2948678              -8.0238 (LUMO)
        14                         -0.2508982              -6.8273
        15                         -0.2153349              -5.8596
        16                          0.1149384               3.1276
        17                          0.1484529               4.0396
        18                          0.2786023               7.5812
        19                          0.4084840              11.1154
        20                          0.6198580              16.8672
      -------------------------------------------------------------
                  HL-Gap            0.1002049 Eh            2.7267 eV

     #   Z        covCN         q      C6AA      Î±(0)
     1   6 C      1.991    -0.050    32.404     9.193
     2   6 C      2.746     0.003    27.936     8.654
Molecule has the following symmetry elements: (sigma)
It seems to be the Cs point group
     3   7 N      1.835    -0.146    24.940     7.401
     4   6 C      2.723     0.043    27.002     8.507
     5   6 C      3.471     0.150    20.033     6.714

Wiberg/Mayer (AO) data.
largest (>0.10) Wiberg bond orders for each atom
          total WBO             WBO to atom ...

molecular dipole:
                 x           y           z       tot (Debye)
 q only:        0.146      -0.064       0.021
   full:        0.344      -0.062       0.016       0.889

 projected vibrational frequencies (cm-1)
eigval :       -0.00    -0.00    -0.00     0.00     0.00     0.00
eigval :      295.99   362.04   545.02   567.34   914.18   950.19
eigval :     1098.33  1442.19  1616.40

   temp. (K)  partition function   enthalpy   heat capacity  entropy
                                   cal/mol     cal/K/mol   cal/K/mol   J/K/mol
  10.00  VIB   1.00                    0.000      0.000     -0.002
         ROT   172.                   29.809      2.981     13.207
         INT   172.                   29.809      2.981     13.205
         TR   0.290E+25               49.681      4.968     21.419
         TOT                          79.4904     7.9490    34.6242   144.8677

       T/K    H(0)-H(T)+PV         H(T)/Eh          T*S/Eh         G(T)/Eh
   ------------------------------------------------------------------------
    298.15    0.505212E-02    0.228029E-01    0.311468E-01   -0.834392E-02
    120.00    0.158843E-02    0.193392E-01    0.104834E-01    0.885580E-02
    100.00    0.129690E-02    0.190477E-01    0.847072E-02    0.105770E-01
     80.00    0.102271E-02    0.187735E-01    0.653214E-02    0.122413E-01
     60.00    0.761461E-03    0.185122E-01    0.467387E-02    0.138384E-01
     40.00    0.506740E-03    0.182575E-01    0.290947E-02    0.153480E-01
     20.00    0.253352E-03    0.180041E-01    0.127913E-02    0.167250E-01
     10.00    0.126676E-03    0.178774E-01    0.551772E-03    0.173257E-01 (used)
   ------------------------------------------------------------------------

         :::::::::::::::::::::::::::::::::::::::::::::::::::::
         ::                  THERMODYNAMIC                  ::
         :::::::::::::::::::::::::::::::::::::::::::::::::::::
         :: total free energy         -11.021615461880 Eh   ::
         ::.................................................::
         :: total energy              -11.038941134511 Eh   ::
         :: zero point energy           0.017750768471 Eh   ::
         :: G(RRHO) w/o ZPVE           -0.000425095840 Eh   ::
         :: G(RRHO) contrib.            0.017325672631 Eh   ::
         :::::::::::::::::::::::::::::::::::::::::::::::::::::

           -------------------------------------------------
          | TOTAL ENERGY              -11.038941134511 Eh   |
          | TOTAL ENTHALPY            -11.021063690025 Eh   |
          | TOTAL FREE ENERGY         -11.021615461880 Eh   |
          | GRADIENT NORM               0.000989002711 Eh/Î± |
          | HOMO-LUMO GAP               2.726714511756 eV   |
           -------------------------------------------------

 * finished run on 2020/05/12 at 11:44:16.975
