   * xtb version 6.2.2 (9d81278992624c895f80dd42a50cac0aa55982e2) compiled by '@Darwin' on 04/03/2020
          program call               : xtb --input H2C3_4_S_2.input H2C3_4_S_2.xyz --ohess --molden --namespace H2C3_4_S_2 output.out
          number of atoms            :                     5
          number of electrons        :                    14
          charge                     :                     0
          spin                       :                   1.0

   ID    Z sym.   atoms
    1    6 C      1-3
    2    1 H      4, 5

          :  Hamiltonian                  GFN2-xTB          :
 * total energy  :    -7.0893530 Eh     change        0.1124691E-09 Eh
 * total energy  :    -7.1028878 Eh     change       -0.1353478E-01 Eh
 * total energy  :    -7.0460522 Eh     change        0.5683564E-01 Eh
 * total energy  :    -7.1173517 Eh     change       -0.7129951E-01 Eh
 * total energy  :    -7.1222998 Eh     change       -0.4948097E-02 Eh
 * total energy  :    -7.1241198 Eh     change       -0.1819971E-02 Eh
 * total energy  :    -7.1242405 Eh     change       -0.1207345E-03 Eh
 * total energy  :    -7.1242556 Eh     change       -0.1512244E-04 Eh
 * total energy  :    -7.1242614 Eh     change       -0.5821320E-05 Eh
 * total energy  :    -7.1242631 Eh     change       -0.1649930E-05 Eh
   *** GEOMETRY OPTIMIZATION CONVERGED AFTER 10 ITERATIONS ***

 final structure:
================
5
 xtb: 6.2.2 (9d81278992624c895f80dd42a50cac0aa55982e2)
C        -0.33276843682081    0.00047506460709   -0.00525744745322
C         1.08770923516119    0.08036031986283   -0.61565239051499
C         1.06748201427143   -0.08343679049866    0.64969772168017
H        -0.91088343978499   -0.90806066140501   -0.11732818835839
H        -0.91153937282682    0.91066206743376    0.08854030464643

          :  Hamiltonian                  GFN2-xTB          :
         :: gradient norm              0.000562550951 Eh/a0 ::
         :: HOMO-LUMO gap              4.114224537426 eV    ::
         :: SCC energy                -7.252963470629 Eh    ::
         :: -> dispersion             -0.001531179759 Eh    ::
         :: repulsion energy           0.128700355476 Eh    ::

    * Orbital Energies and Occupations

         #    Occupation            Energy/Eh            Energy/eV
      -------------------------------------------------------------
         1        2.0000           -0.6708787             -18.2555
         2        2.0000           -0.5939275             -16.1616
         3        2.0000           -0.5315699             -14.4648
         4        2.0000           -0.5177843             -14.0896
         5        2.0000           -0.4916447             -13.3783
         6        2.0000           -0.4138119             -11.2604
         7        1.0000           -0.3881776             -10.5629
         8        1.0000           -0.3657955              -9.9538 (HOMO)
         9                         -0.2146005              -5.8396 (LUMO)
        10                         -0.0613706              -1.6700
        11                          0.0393787               1.0715
        12                          0.1858775               5.0580
        13                          0.2347965               6.3891
        14                          0.6728937              18.3104
      -------------------------------------------------------------
                  HL-Gap            0.1511950 Eh            4.1142 eV

     #   Z        covCN         q      C6AA      Î±(0)
     1   6 C      3.796     0.012    20.380     6.428
     2   6 C      1.954    -0.057    32.604     9.221
     3   6 C      1.954    -0.057    32.604     9.221
     4   1 H      0.925     0.051     2.312     2.378
     5   1 H      0.925     0.051     2.312     2.378

Wiberg/Mayer (AO) data.
largest (>0.10) Wiberg bond orders for each atom
          total WBO             WBO to atom ...

molecular dipole:
                 x           y           z       tot (Debye)
 q only:       -0.412       0.001      -0.007
   full:       -0.628       0.001      -0.010       1.595

 projected vibrational frequencies (cm-1)
eigval :       -0.00    -0.00    -0.00     0.00     0.00     0.00
eigval :     -369.55   720.78   934.20  1003.79  1014.07  1429.02
eigval :     1858.91  3030.87  3037.25

   temp. (K)  partition function   enthalpy   heat capacity  entropy
                                   cal/mol     cal/K/mol   cal/K/mol   J/K/mol
  10.00  VIB   1.00                    0.000      0.000     -0.000
         ROT   20.5                   29.809      2.981      8.979
         INT   20.5                   29.809      2.981      8.979
         TR   0.139E+25               49.681      4.968     19.962
         TOT                          79.4904     7.9490    28.9415   121.0914

       T/K    H(0)-H(T)+PV         H(T)/Eh          T*S/Eh         G(T)/Eh
   ------------------------------------------------------------------------
    298.15    0.400773E-02    0.336898E-01    0.268562E-01    0.683352E-02
    120.00    0.152080E-02    0.312028E-01    0.931152E-02    0.218913E-01
    100.00    0.126687E-02    0.309489E-01    0.752820E-02    0.234207E-01
     80.00    0.101342E-02    0.306954E-01    0.579640E-02    0.248990E-01
     60.00    0.760056E-03    0.304421E-01    0.412871E-02    0.263134E-01
     40.00    0.506704E-03    0.301887E-01    0.254708E-02    0.276416E-01
     20.00    0.253352E-03    0.299354E-01    0.109798E-02    0.288374E-01
     10.00    0.126676E-03    0.298087E-01    0.461213E-03    0.293475E-01 (used)
   ------------------------------------------------------------------------

         :::::::::::::::::::::::::::::::::::::::::::::::::::::
         ::                  THERMODYNAMIC                  ::
         :::::::::::::::::::::::::::::::::::::::::::::::::::::
         :: total free energy          -7.094915601356 Eh   ::
         ::.................................................::
         :: total energy               -7.124263090320 Eh   ::
         :: zero point energy           0.029682025639 Eh   ::
         :: G(RRHO) w/o ZPVE           -0.000334536675 Eh   ::
         :: G(RRHO) contrib.            0.029347488964 Eh   ::
         :::::::::::::::::::::::::::::::::::::::::::::::::::::

           -------------------------------------------------
          | TOTAL ENERGY               -7.124263090320 Eh   |
          | TOTAL ENTHALPY             -7.094454388665 Eh   |
          | TOTAL FREE ENERGY          -7.094915601356 Eh   |
          | GRADIENT NORM               0.000562572003 Eh/Î± |
          | HOMO-LUMO GAP               4.114225639694 eV   |
           -------------------------------------------------

 * finished run on 2020/05/12 at 11:44:27.130
