   * xtb version 6.2.2 (9d81278992624c895f80dd42a50cac0aa55982e2) compiled by '@Darwin' on 04/03/2020
          program call               : xtb --input H1C3N1_25_S_2.input H1C3N1_25_S_2.xyz --ohess --molden --namespace H1C3N1_25_S_2 output.out
          number of atoms            :                     5
          number of electrons        :                    18
          charge                     :                     0
          spin                       :                   1.0

   ID    Z sym.   atoms
    1    6 C      1-3
    2    7 N      4
    3    1 H      5

          :  Hamiltonian                  GFN2-xTB          :
 * total energy  :    -9.4426288 Eh     change        0.1367795E-10 Eh
 * total energy  :    -9.4746234 Eh     change       -0.3199468E-01 Eh
 * total energy  :    -9.4656535 Eh     change        0.8969945E-02 Eh
 * total energy  :    -9.4905344 Eh     change       -0.2488091E-01 Eh
 * total energy  :    -9.4913414 Eh     change       -0.8069825E-03 Eh
 * total energy  :    -9.4938651 Eh     change       -0.2523722E-02 Eh
 * total energy  :    -9.4940489 Eh     change       -0.1837437E-03 Eh
 * total energy  :    -9.4942803 Eh     change       -0.2314230E-03 Eh
 * total energy  :    -9.4943314 Eh     change       -0.5109915E-04 Eh
 * total energy  :    -9.4943452 Eh     change       -0.1380217E-04 Eh
 * total energy  :    -9.4943470 Eh     change       -0.1856656E-05 Eh
   *** GEOMETRY OPTIMIZATION CONVERGED AFTER 11 ITERATIONS ***

 final structure:
================
5
 xtb: 6.2.2 (9d81278992624c895f80dd42a50cac0aa55982e2)
C        -0.42605955915464    0.87438023736302   -0.14499872519002
C        -1.26760418678982    0.02114437461614    0.58490204541516
C        -0.45639171157979   -0.85839544552995   -0.14810753282611
N         0.63254272702521   -0.01037492896268   -0.38724595661218
H         1.51751273049904   -0.02675423748653    0.09545016921314

          :  Hamiltonian                  GFN2-xTB          :
         :: gradient norm              0.000353240996 Eh/a0 ::
         :: HOMO-LUMO gap              2.379932790305 eV    ::
         :: SCC energy                -9.611201385213 Eh    ::
         :: -> dispersion             -0.002080227461 Eh    ::
         :: repulsion energy           0.116854330225 Eh    ::

    * Orbital Energies and Occupations

         #    Occupation            Energy/Eh            Energy/eV
      -------------------------------------------------------------
         1        2.0000           -0.7229619             -19.6728
         2        2.0000           -0.6416349             -17.4598
         3        2.0000           -0.6072382             -16.5238
         4        2.0000           -0.5907718             -16.0757
         5        2.0000           -0.5274717             -14.3532
         6        2.0000           -0.5228500             -14.2275
         7        2.0000           -0.4487299             -12.2106
         8        2.0000           -0.4267916             -11.6136
         9        1.0000           -0.3713688             -10.1055
        10        1.0000           -0.3647985              -9.9267 (HOMO)
        11                         -0.2773376              -7.5467 (LUMO)
        12                         -0.2366072              -6.4384
        13                          0.0317959               0.8652
        14                          0.0917674               2.4971
        15                          0.1705033               4.6396
        16                          0.2451941               6.6721
        17                          0.4771012              12.9826
      -------------------------------------------------------------
                  HL-Gap            0.0874609 Eh            2.3799 eV

     #   Z        covCN         q      C6AA      Î±(0)
     1   6 C      2.793    -0.010    28.252     8.707
     2   6 C      2.099    -0.071    32.812     9.255
     3   6 C      2.793    -0.010    28.252     8.707
     4   7 N      2.818    -0.088    22.953     7.116
     5   1 H      0.860     0.180     1.216     1.728

Wiberg/Mayer (AO) data.
largest (>0.10) Wiberg bond orders for each atom
          total WBO             WBO to atom ...

molecular dipole:
                 x           y           z       tot (Debye)
 q only:        0.598      -0.011       0.023
   full:        1.012      -0.018       0.024       2.573

 projected vibrational frequencies (cm-1)
eigval :       -0.00    -0.00    -0.00    -0.00     0.00     0.00
eigval :      468.69   617.05   800.94   814.51   914.58   987.31
eigval :     1240.70  1403.57  3416.29

   temp. (K)  partition function   enthalpy   heat capacity  entropy
                                   cal/mol     cal/K/mol   cal/K/mol   J/K/mol
  10.00  VIB   1.00                    0.000      0.000     -0.000
         ROT   86.1                   29.809      2.981     11.836
         INT   86.1                   29.809      2.981     11.835
         TR   0.217E+25               49.681      4.968     20.838
         TOT                          79.4904     7.9490    32.6731   136.7043

       T/K    H(0)-H(T)+PV         H(T)/Eh          T*S/Eh         G(T)/Eh
   ------------------------------------------------------------------------
    298.15    0.443978E-02    0.287334E-01    0.292208E-01   -0.487415E-03
    120.00    0.153017E-02    0.258238E-01    0.100362E-01    0.157876E-01
    100.00    0.126975E-02    0.255633E-01    0.812622E-02    0.174371E-01
     80.00    0.101392E-02    0.253075E-01    0.627274E-02    0.190348E-01
     60.00    0.760085E-03    0.250537E-01    0.448557E-02    0.205681E-01
     40.00    0.506704E-03    0.248003E-01    0.278496E-02    0.220153E-01
     20.00    0.253352E-03    0.245469E-01    0.121692E-02    0.233300E-01
     10.00    0.126676E-03    0.244203E-01    0.520679E-03    0.238996E-01 (used)
   ------------------------------------------------------------------------

         :::::::::::::::::::::::::::::::::::::::::::::::::::::
         ::                  THERMODYNAMIC                  ::
         :::::::::::::::::::::::::::::::::::::::::::::::::::::
         :: total free energy          -9.470447461572 Eh   ::
         ::.................................................::
         :: total energy               -9.494347036060 Eh   ::
         :: zero point energy           0.024293577607 Eh   ::
         :: G(RRHO) w/o ZPVE           -0.000394003118 Eh   ::
         :: G(RRHO) contrib.            0.023899574489 Eh   ::
         :::::::::::::::::::::::::::::::::::::::::::::::::::::

           -------------------------------------------------
          | TOTAL ENERGY               -9.494347036060 Eh   |
          | TOTAL ENTHALPY             -9.469926782438 Eh   |
          | TOTAL FREE ENERGY          -9.470447461572 Eh   |
          | GRADIENT NORM               0.000353313337 Eh/Î± |
          | HOMO-LUMO GAP               2.379932793553 eV   |
           -------------------------------------------------

 * finished run on 2020/05/12 at 11:45:00.380
