   * xtb version 6.2.2 (9d81278992624c895f80dd42a50cac0aa55982e2) compiled by '@Darwin' on 04/03/2020
          program call               : xtb --input C4N1_4_S_1.input C4N1_4_S_1.xyz --ohess --molden --namespace C4N1_4_S_1 output.out
          number of atoms            :                     5
          number of electrons        :                    21
          charge                     :                     0
          spin                       :                   0.5

   ID    Z sym.   atoms
    1    6 C      1, 2, 4, 5
    2    7 N      3

          :  Hamiltonian                  GFN2-xTB          :
 * total energy  :   -10.8672470 Eh     change        0.1957510E-09 Eh
 * total energy  :   -10.9681085 Eh     change       -0.1008614E+00 Eh
 * total energy  :   -10.9902243 Eh     change       -0.2211583E-01 Eh
 * total energy  :   -11.0324241 Eh     change       -0.4219980E-01 Eh
 * total energy  :   -11.0531890 Eh     change       -0.2076485E-01 Eh
 * total energy  :   -11.0977396 Eh     change       -0.4455062E-01 Eh
 * total energy  :   -11.0916415 Eh     change        0.6098071E-02 Eh
 * total energy  :   -11.1023372 Eh     change       -0.1069570E-01 Eh
 * total energy  :   -11.0965920 Eh     change        0.5745231E-02 Eh
 * total energy  :   -11.1144265 Eh     change       -0.1783456E-01 Eh
 * total energy  :   -11.1232856 Eh     change       -0.3866795E-03 Eh
 * total energy  :   -11.1234800 Eh     change       -0.1944297E-03 Eh
 * total energy  :   -11.1236125 Eh     change       -0.1324859E-03 Eh
 * total energy  :   -11.1237558 Eh     change       -0.1433196E-03 Eh
 * total energy  :   -11.1237922 Eh     change       -0.3636870E-04 Eh
 * total energy  :   -11.1238064 Eh     change       -0.1419961E-04 Eh
 * total energy  :   -11.1238142 Eh     change       -0.7797832E-05 Eh
 * total energy  :   -11.1238207 Eh     change       -0.6551657E-05 Eh
 * total energy  :   -11.1238243 Eh     change       -0.3554785E-05 Eh
   *** GEOMETRY OPTIMIZATION CONVERGED AFTER 33 ITERATIONS ***

 final structure:
================
5
 xtb: 6.2.2 (9d81278992624c895f80dd42a50cac0aa55982e2)
C        -1.55333191061757   -0.65293093951530    0.04678214009172
C        -0.25903987209467    0.07701239873236    0.00389886506076
N         1.03139452988153   -0.02605317944751   -0.01817345370433
C        -1.42262530505079    0.74252318309843    0.00966186366408
C         2.20360255788151   -0.14055146286798   -0.04216941511223

          :  Hamiltonian                  GFN2-xTB          :
         :: gradient norm              0.000948759045 Eh/a0 ::
         :: HOMO-LUMO gap              1.787806866626 eV    ::
         :: SCC energy               -11.335451429118 Eh    ::
         :: -> dispersion             -0.002807366155 Eh    ::
         :: repulsion energy           0.211627206759 Eh    ::

    * Orbital Energies and Occupations

         #    Occupation            Energy/Eh            Energy/eV
      -------------------------------------------------------------
         1        2.0000           -0.7286416             -19.8273
         2        2.0000           -0.7180426             -19.5389
         3        2.0000           -0.6769996             -18.4221
         4        2.0000           -0.6067744             -16.5112
         5        2.0000           -0.5854785             -15.9317
         6        2.0000           -0.5451237             -14.8336
         7        2.0000           -0.5272660             -14.3476
         8        2.0000           -0.5046604             -13.7325
         9        2.0000           -0.4772596             -12.9869
        10        2.0000           -0.4318705             -11.7518
        11        1.0000           -0.4087554             -11.1228 (HOMO)
        12                         -0.3430545              -9.3350 (LUMO)
        13                         -0.2880674              -7.8387
        14                         -0.2724532              -7.4138
        15                         -0.1989907              -5.4148
        16                         -0.0323822              -0.8812
        17                          0.0360476               0.9809
        18                          0.2992488               8.1430
        19                          0.5632144              15.3258
        20                          1.0706372              29.1335
      -------------------------------------------------------------
                  HL-Gap            0.0657009 Eh            1.7878 eV

     #   Z        covCN         q      C6AA      Î±(0)
     1   6 C      1.958    -0.114    34.251     9.451
     2   6 C      2.875     0.163    24.473     8.110
     3   7 N      1.821     0.060    20.844     6.765
     4   6 C      1.961    -0.017    31.515     9.066
     5   6 C      0.916    -0.093    38.383    10.371

Wiberg/Mayer (AO) data.
largest (>0.10) Wiberg bond orders for each atom
          total WBO             WBO to atom ...

molecular dipole:
                 x           y           z       tot (Debye)
 q only:        0.032       0.163      -0.004
   full:        0.077       0.451      -0.011       1.163

 projected vibrational frequencies (cm-1)
eigval :       -0.00    -0.00    -0.00    -0.00     0.00     0.00
eigval :      185.74   192.23   444.42   488.67   731.85  1010.65
eigval :     1228.61  1812.57  2099.66

   temp. (K)  partition function   enthalpy   heat capacity  entropy
                                   cal/mol     cal/K/mol   cal/K/mol   J/K/mol
  10.00  VIB   1.00                    0.000      0.000     -0.012
         ROT   215.                   29.809      2.981     13.658
         INT   215.                   29.809      2.981     13.646
         TR   0.290E+25               49.681      4.968     21.419
         TOT                          79.4904     7.9490    35.0654   146.7137

       T/K    H(0)-H(T)+PV         H(T)/Eh          T*S/Eh         G(T)/Eh
   ------------------------------------------------------------------------
    298.15    0.558703E-02    0.242552E-01    0.325148E-01   -0.825958E-02
    120.00    0.173629E-02    0.204045E-01    0.107877E-01    0.961682E-02
    100.00    0.139384E-02    0.200621E-01    0.867798E-02    0.113841E-01
     80.00    0.107402E-02    0.197422E-01    0.665737E-02    0.130849E-01
     60.00    0.778890E-03    0.194471E-01    0.473881E-02    0.147083E-01
     40.00    0.508638E-03    0.191769E-01    0.294053E-02    0.162363E-01
     20.00    0.253354E-03    0.189216E-01    0.129339E-02    0.176282E-01
     10.00    0.126676E-03    0.187949E-01    0.558803E-03    0.182361E-01 (used)
   ------------------------------------------------------------------------

         :::::::::::::::::::::::::::::::::::::::::::::::::::::
         ::                  THERMODYNAMIC                  ::
         :::::::::::::::::::::::::::::::::::::::::::::::::::::
         :: total free energy         -11.105588208501 Eh   ::
         ::.................................................::
         :: total energy              -11.123824294948 Eh   ::
         :: zero point energy           0.018668213512 Eh   ::
         :: G(RRHO) w/o ZPVE           -0.000432127066 Eh   ::
         :: G(RRHO) contrib.            0.018236086447 Eh   ::
         :::::::::::::::::::::::::::::::::::::::::::::::::::::

           -------------------------------------------------
          | TOTAL ENERGY              -11.123824294948 Eh   |
          | TOTAL ENTHALPY            -11.105029405420 Eh   |
          | TOTAL FREE ENERGY         -11.105588208501 Eh   |
          | GRADIENT NORM               0.000948994619 Eh/Î± |
          | HOMO-LUMO GAP               1.787813763219 eV   |
           -------------------------------------------------

 * finished run on 2020/05/12 at 11:43:58.873
