   * xtb version 6.2.2 (9d81278992624c895f80dd42a50cac0aa55982e2) compiled by '@Darwin' on 04/03/2020
          program call               : xtb --input C5_1_S_2.input C5_1_S_2.xyz --ohess --molden --namespace C5_1_S_2 output.out
          number of atoms            :                     5
          number of electrons        :                    20
          charge                     :                     0
          spin                       :                   1.0

   ID    Z sym.   atoms
    1    6 C      1-5

          :  Hamiltonian                  GFN2-xTB          :
 * total energy  :    -9.9990563 Eh     change       -0.7634249E-10 Eh
 * total energy  :   -10.1007237 Eh     change       -0.1016673E+00 Eh
 * total energy  :   -10.0910244 Eh     change        0.9699294E-02 Eh
 * total energy  :   -10.1336494 Eh     change       -0.4262503E-01 Eh
 * total energy  :   -10.1445589 Eh     change       -0.1090947E-01 Eh
 * total energy  :   -10.1638810 Eh     change       -0.1932216E-01 Eh
 * total energy  :   -10.2160856 Eh     change       -0.5220457E-01 Eh
 * total energy  :    -9.9636725 Eh     change        0.2524131E+00 Eh
 * total energy  :   -10.2357505 Eh     change       -0.2720780E+00 Eh
 * total energy  :   -10.0642414 Eh     change        0.1715092E+00 Eh
 * total energy  :   -10.2429623 Eh     change       -0.6057398E-05 Eh
 * total energy  :   -10.2429748 Eh     change       -0.1257098E-04 Eh
 * total energy  :   -10.2429819 Eh     change       -0.7087817E-05 Eh
 * total energy  :   -10.2429935 Eh     change       -0.1155975E-04 Eh
 * total energy  :   -10.2429990 Eh     change       -0.5482599E-05 Eh
 * total energy  :   -10.2430067 Eh     change       -0.7724192E-05 Eh
 * total energy  :   -10.2430106 Eh     change       -0.3871401E-05 Eh
 * total energy  :   -10.2430204 Eh     change       -0.9873537E-05 Eh
 * total energy  :   -10.2430222 Eh     change       -0.1777663E-05 Eh
   *** GEOMETRY OPTIMIZATION CONVERGED AFTER 32 ITERATIONS ***

 final structure:
================
5
 xtb: 6.2.2 (9d81278992624c895f80dd42a50cac0aa55982e2)
C        -1.30998568455863    1.05383099939598    0.09091280891658
C        -0.25563082838883    0.06801308043664    0.00580292852794
C         1.00562694495962   -0.28533448851665   -0.02470752074970
C        -1.67134868159638   -0.22086884275217   -0.01948802207757
C         2.23133824958422   -0.61564074856379   -0.05252019461724

          :  Hamiltonian                  GFN2-xTB          :
         :: gradient norm              0.000618976387 Eh/a0 ::
         :: HOMO-LUMO gap              1.848986663504 eV    ::
         :: SCC energy               -10.467730774570 Eh    ::
         :: -> dispersion             -0.002862830463 Eh    ::
         :: repulsion energy           0.224708682314 Eh    ::

    * Orbital Energies and Occupations

         #    Occupation            Energy/Eh            Energy/eV
      -------------------------------------------------------------
         1        2.0000           -0.7307804             -19.8855
         2        2.0000           -0.6729040             -18.3106
         3        2.0000           -0.6334388             -17.2367
         4        2.0000           -0.5888541             -16.0235
         5        2.0000           -0.5531398             -15.0517
         6        2.0000           -0.5491720             -14.9437
         7        2.0000           -0.4821717             -13.1206
         8        2.0000           -0.4642522             -12.6329
         9        1.9654           -0.4340432             -11.8109
        10        1.0346           -0.4277178             -11.6388
        11        1.0000           -0.4111946             -11.1892 (HOMO)
        12                         -0.3432455              -9.3402 (LUMO)
        13                         -0.2889635              -7.8631
        14                         -0.2295432              -6.2462
        15                         -0.1537295              -4.1832
        16                         -0.0040174              -0.1093
        17                          0.0498018               1.3552
        18                          0.4684694              12.7477
        19                          0.4828297              13.1385
        20                          1.1289014              30.7190
      -------------------------------------------------------------
                  HL-Gap            0.0679491 Eh            1.8490 eV

     #   Z        covCN         q      C6AA      Î±(0)
     1   6 C      1.960    -0.012    31.378     9.046
     2   6 C      2.940     0.132    25.120     8.220
     3   6 C      1.962     0.022    30.492     8.917
     4   6 C      1.960    -0.011    31.376     9.046
     5   6 C      0.982    -0.131    40.165    10.645

Wiberg/Mayer (AO) data.
largest (>0.10) Wiberg bond orders for each atom
          total WBO             WBO to atom ...

molecular dipole:
                 x           y           z       tot (Debye)
 q only:       -0.509       0.139       0.012
   full:       -0.806       0.217       0.018       2.123

 projected vibrational frequencies (cm-1)
eigval :       -0.00     0.00     0.00     0.00     0.00     0.00
eigval :       72.82   167.21   357.19   490.63   711.51   803.59
eigval :     1275.02  1666.44  1899.30

   temp. (K)  partition function   enthalpy   heat capacity  entropy
                                   cal/mol     cal/K/mol   cal/K/mol   J/K/mol
  10.00  VIB   1.00                    0.006      0.006     -0.046
         ROT   108.                   29.809      2.981     12.284
         INT   108.                   29.815      2.987     12.237
         TR   0.277E+25               49.681      4.968     21.322
         TOT                          79.4963     7.9552    33.5595   140.4128

       T/K    H(0)-H(T)+PV         H(T)/Eh          T*S/Eh         G(T)/Eh
   ------------------------------------------------------------------------
    298.15    0.596458E-02    0.229226E-01    0.329327E-01   -0.100101E-01
    120.00    0.190658E-02    0.188646E-01    0.108549E-01    0.800967E-02
    100.00    0.153320E-02    0.184912E-01    0.871028E-02    0.978094E-02
     80.00    0.117868E-02    0.181367E-01    0.665622E-02    0.114805E-01
     60.00    0.844566E-03    0.178026E-01    0.470753E-02    0.130951E-01
     40.00    0.534646E-03    0.174927E-01    0.288945E-02    0.146032E-01
     20.00    0.255127E-03    0.172131E-01    0.125105E-02    0.159621E-01
     10.00    0.126685E-03    0.170847E-01    0.534804E-03    0.165499E-01 (used)
   ------------------------------------------------------------------------

         :::::::::::::::::::::::::::::::::::::::::::::::::::::
         ::                  THERMODYNAMIC                  ::
         :::::::::::::::::::::::::::::::::::::::::::::::::::::
         :: total free energy         -10.226472322372 Eh   ::
         ::.................................................::
         :: total energy              -10.243022218556 Eh   ::
         :: zero point energy           0.016958014991 Eh   ::
         :: G(RRHO) w/o ZPVE           -0.000408118808 Eh   ::
         :: G(RRHO) contrib.            0.016549896184 Eh   ::
         :::::::::::::::::::::::::::::::::::::::::::::::::::::

           -------------------------------------------------
          | TOTAL ENERGY              -10.243022218556 Eh   |
          | TOTAL ENTHALPY            -10.225937518202 Eh   |
          | TOTAL FREE ENERGY         -10.226472322372 Eh   |
          | GRADIENT NORM               0.000618272952 Eh/Î± |
          | HOMO-LUMO GAP               1.848989888826 eV   |
           -------------------------------------------------

 * finished run on 2020/05/12 at 11:44:31.535
