   * xtb version 6.2.2 (9d81278992624c895f80dd42a50cac0aa55982e2) compiled by '@Darwin' on 04/03/2020
          program call               : xtb --input C4N1_50_S_1.input C4N1_50_S_1.xyz --ohess --molden --namespace C4N1_50_S_1 output.out
          number of atoms            :                     5
          number of electrons        :                    21
          charge                     :                     0
          spin                       :                   0.5

   ID    Z sym.   atoms
    1    7 N      1
    2    6 C      2-5

          :  Hamiltonian                  GFN2-xTB          :
 * total energy  :   -10.9624143 Eh     change        0.2521004E-08 Eh
 * total energy  :   -11.0064130 Eh     change       -0.4399872E-01 Eh
 * total energy  :   -11.0464771 Eh     change       -0.4006401E-01 Eh
 * total energy  :   -11.0514597 Eh     change       -0.4982622E-02 Eh
 * total energy  :   -11.0545579 Eh     change       -0.3098205E-02 Eh
 * total energy  :   -11.0565055 Eh     change       -0.1947617E-02 Eh
 * total energy  :   -11.0318482 Eh     change        0.2465734E-01 Eh
 * total energy  :   -11.0606617 Eh     change       -0.2881352E-01 Eh
 * total energy  :   -11.0616529 Eh     change       -0.9912252E-03 Eh
 * total energy  :   -11.0621678 Eh     change       -0.5148440E-03 Eh
 * total energy  :   -11.0625185 Eh     change       -0.3507161E-03 Eh
 * total energy  :   -11.0626780 Eh     change       -0.1595097E-03 Eh
 * total energy  :   -11.0626911 Eh     change       -0.1307522E-04 Eh
 * total energy  :   -11.0626927 Eh     change       -0.1676614E-05 Eh
   *** GEOMETRY OPTIMIZATION CONVERGED AFTER 14 ITERATIONS ***

 final structure:
================
5
 xtb: 6.2.2 (9d81278992624c895f80dd42a50cac0aa55982e2)
N         0.62414629874248   -0.79154907801147    0.01042156465239
C         0.03110192094048   -0.00990094919716   -1.00244294393258
C        -0.65527571707412    0.83102383856300   -0.01099175852859
C         0.68160898598368    0.52287008521623    0.51734185112739
C        -0.68158248859253   -0.55244389657059    0.48567128668140

          :  Hamiltonian                  GFN2-xTB          :
         :: gradient norm              0.000740609803 Eh/a0 ::
         :: HOMO-LUMO gap              3.152388679178 eV    ::
         :: SCC energy               -11.178221426255 Eh    ::
         :: -> dispersion             -0.002327345911 Eh    ::
         :: repulsion energy           0.115528684093 Eh    ::

    * Orbital Energies and Occupations

         #    Occupation            Energy/Eh            Energy/eV
      -------------------------------------------------------------
         1        2.0000           -0.7941638             -21.6103
         2        2.0000           -0.6760757             -18.3970
         3        2.0000           -0.6646387             -18.0857
         4        2.0000           -0.6646140             -18.0851
         5        2.0000           -0.5599337             -15.2366
         6        2.0000           -0.5599103             -15.2359
         7        2.0000           -0.5314276             -14.4609
         8        2.0000           -0.4787635             -13.0278
         9        2.0000           -0.4699601             -12.7883
        10        2.0000           -0.4699431             -12.7878
        11        1.0000           -0.4286659             -11.6646 (HOMO)
        12                         -0.3128178              -8.5122 (LUMO)
        13                         -0.3127507              -8.5104
        14                         -0.2480155              -6.7488
        15                         -0.0017111              -0.0466
        16                         -0.0016976              -0.0462
        17                          0.0667353               1.8160
        18                          0.0669379               1.8215
        19                          0.0917292               2.4961
        20                          0.3666511               9.9771
      -------------------------------------------------------------
                  HL-Gap            0.1158481 Eh            3.1524 eV

     #   Z        covCN         q      C6AA      Î±(0)
     1   7 N      2.961     0.014    21.006     6.807
     2   6 C      3.689    -0.022    21.159     6.583
     3   6 C      3.169     0.052    26.474     8.406
     4   6 C      3.690    -0.022    21.158     6.583
     5   6 C      3.690    -0.022    21.158     6.583

Wiberg/Mayer (AO) data.
largest (>0.10) Wiberg bond orders for each atom
          total WBO             WBO to atom ...

molecular dipole:
                 x           y           z       tot (Debye)
 q only:       -0.050       0.063      -0.001
   full:       -0.015       0.019      -0.000       0.060

 projected vibrational frequencies (cm-1)
eigval :       -0.00    -0.00    -0.00     0.00     0.00     0.00
eigval :      405.48   405.63   821.47   848.63   848.82  1038.91
eigval :     1039.62  1277.58  1393.58

   temp. (K)  partition function   enthalpy   heat capacity  entropy
                                   cal/mol     cal/K/mol   cal/K/mol   J/K/mol
  10.00  VIB   1.00                    0.000      0.000     -0.001
         ROT   43.1                   29.809      2.981     10.458
         INT   43.1                   29.809      2.981     10.457
         TR   0.290E+25               49.681      4.968     21.419
         TOT                          79.4904     7.9490    31.8769   133.3729

       T/K    H(0)-H(T)+PV         H(T)/Eh          T*S/Eh         G(T)/Eh
   ------------------------------------------------------------------------
    298.15    0.467134E-02    0.230783E-01    0.292125E-01   -0.613414E-02
    120.00    0.154944E-02    0.199564E-01    0.990758E-02    0.100488E-01
    100.00    0.127766E-02    0.196846E-01    0.800879E-02    0.116759E-01
     80.00    0.101593E-02    0.194229E-01    0.617360E-02    0.132493E-01
     60.00    0.760277E-03    0.191673E-01    0.440970E-02    0.147576E-01
     40.00    0.506706E-03    0.189137E-01    0.273424E-02    0.161794E-01
     20.00    0.253352E-03    0.186603E-01    0.119155E-02    0.174688E-01
     10.00    0.126676E-03    0.185337E-01    0.507990E-03    0.180257E-01 (used)
   ------------------------------------------------------------------------

         :::::::::::::::::::::::::::::::::::::::::::::::::::::
         ::                  THERMODYNAMIC                  ::
         :::::::::::::::::::::::::::::::::::::::::::::::::::::
         :: total free energy         -11.044667063707 Eh   ::
         ::.................................................::
         :: total energy              -11.062692728266 Eh   ::
         :: zero point energy           0.018406978984 Eh   ::
         :: G(RRHO) w/o ZPVE           -0.000381314425 Eh   ::
         :: G(RRHO) contrib.            0.018025664559 Eh   ::
         :::::::::::::::::::::::::::::::::::::::::::::::::::::

           -------------------------------------------------
          | TOTAL ENERGY              -11.062692728266 Eh   |
          | TOTAL ENTHALPY            -11.044159073266 Eh   |
          | TOTAL FREE ENERGY         -11.044667063707 Eh   |
          | GRADIENT NORM               0.000740601957 Eh/Î± |
          | HOMO-LUMO GAP               3.152387988939 eV   |
           -------------------------------------------------

 * finished run on 2020/05/12 at 11:44:20.935
