   * xtb version 6.2.2 (9d81278992624c895f80dd42a50cac0aa55982e2) compiled by '@Darwin' on 04/03/2020
          program call               : xtb --input H2C1N2_13_S_0.input H2C1N2_13_S_0.xyz --ohess --molden --namespace H2C1N2_13_S_0 output.out
          number of atoms            :                     5
          number of electrons        :                    16
          charge                     :                     0
          spin                       :                   0.0

   ID    Z sym.   atoms
    1    7 N      1, 3
    2    6 C      2
    3    1 H      4, 5

          :  Hamiltonian                  GFN2-xTB          :
 * total energy  :    -8.8414207 Eh     change       -0.1610751E-08 Eh
 * total energy  :    -8.8820523 Eh     change       -0.4063161E-01 Eh
 * total energy  :    -8.8759688 Eh     change        0.6083476E-02 Eh
 * total energy  :    -8.8901319 Eh     change       -0.1416309E-01 Eh
 * total energy  :    -8.8906715 Eh     change       -0.5396351E-03 Eh
 * total energy  :    -8.8907187 Eh     change       -0.4715802E-04 Eh
 * total energy  :    -8.8907189 Eh     change       -0.1927400E-06 Eh
   *** GEOMETRY OPTIMIZATION CONVERGED AFTER 7 ITERATIONS ***

 final structure:
================
5
 xtb: 6.2.2 (9d81278992624c895f80dd42a50cac0aa55982e2)
N         0.98083515822805   -0.03186543195475    0.64903042304330
C        -0.29720965581405    0.00383146197912   -0.01238520141991
N         1.03191930079620    0.00591849895886   -0.56515610526842
H        -0.86845159790778   -0.91166369077618   -0.06490745235559
H        -0.84709220530242    0.93377916179295   -0.00658166399938

          :  Hamiltonian                  GFN2-xTB          :
         :: gradient norm              0.000455613036 Eh/a0 ::
         :: HOMO-LUMO gap              2.908621800084 eV    ::
         :: SCC energy                -8.985408812404 Eh    ::
         :: -> dispersion             -0.001425226206 Eh    ::
         :: repulsion energy           0.094689923802 Eh    ::

    * Orbital Energies and Occupations

         #    Occupation            Energy/Eh            Energy/eV
      -------------------------------------------------------------
         1        2.0000           -0.7440369             -20.2463
         2        2.0000           -0.6292215             -17.1220
         3        2.0000           -0.5955895             -16.2068
         4        2.0000           -0.5843072             -15.8998
         5        2.0000           -0.5446627             -14.8210
         6        2.0000           -0.4764654             -12.9653
         7        2.0000           -0.4555783             -12.3969
         8        2.0000           -0.4390167             -11.9463 (HOMO)
         9                         -0.3321268              -9.0376 (LUMO)
        10                         -0.1023045              -2.7838
        11                          0.0668920               1.8202
        12                          0.1900492               5.1715
        13                          0.2479010               6.7457
        14                          0.3672056               9.9922
      -------------------------------------------------------------
                  HL-Gap            0.1068899 Eh            2.9086 eV

     #   Z        covCN         q      C6AA      Î±(0)
     1   7 N      1.889    -0.060    23.126     7.129
     2   6 C      3.667     0.045    20.059     6.422
     3   7 N      1.889    -0.060    23.126     7.129
     4   1 H      0.926     0.037     2.491     2.468
     5   1 H      0.926     0.037     2.491     2.468

Wiberg/Mayer (AO) data.
largest (>0.10) Wiberg bond orders for each atom
          total WBO             WBO to atom ...

molecular dipole:
                 x           y           z       tot (Debye)
Molecule has the following symmetry elements: (C2) 2*(sigma)
It seems to be the C2v point group
 q only:       -0.372       0.005      -0.015
   full:       -0.626       0.008      -0.026       1.591

 projected vibrational frequencies (cm-1)
eigval :       -0.00    -0.00    -0.00    -0.00     0.00     0.00
eigval :      953.86   980.96   983.61  1091.34  1195.72  1444.18
eigval :     1799.63  3091.15  3101.85

   temp. (K)  partition function   enthalpy   heat capacity  entropy
                                   cal/mol     cal/K/mol   cal/K/mol   J/K/mol
  10.00  VIB   1.00                    0.000      0.000     -0.000
         ROT   19.7                   29.809      2.981      8.902
         INT   19.7                   29.809      2.981      8.902
         TR   0.162E+25               49.681      4.968     20.259
         TOT                          79.4904     7.9490    29.1610   122.0098

       T/K    H(0)-H(T)+PV         H(T)/Eh          T*S/Eh         G(T)/Eh
   ------------------------------------------------------------------------
    298.15    0.395018E-02    0.373078E-01    0.268822E-01    0.104256E-01
    120.00    0.152024E-02    0.348779E-01    0.935287E-02    0.255250E-01
    100.00    0.126677E-02    0.346244E-01    0.756306E-02    0.270613E-01
     80.00    0.101341E-02    0.343710E-01    0.582437E-02    0.285467E-01
     60.00    0.760056E-03    0.341177E-01    0.414969E-02    0.299680E-01
     40.00    0.506704E-03    0.338643E-01    0.256107E-02    0.313033E-01
     20.00    0.253352E-03    0.336110E-01    0.110498E-02    0.325060E-01
     10.00    0.126676E-03    0.334843E-01    0.464711E-03    0.330196E-01 (used)
   ------------------------------------------------------------------------

         :::::::::::::::::::::::::::::::::::::::::::::::::::::
         ::                  THERMODYNAMIC                  ::
         :::::::::::::::::::::::::::::::::::::::::::::::::::::
         :: total free energy          -8.857699279209 Eh   ::
         ::.................................................::
         :: total energy               -8.890718868030 Eh   ::
         :: zero point energy           0.033357623542 Eh   ::
         :: G(RRHO) w/o ZPVE           -0.000338034720 Eh   ::
         :: G(RRHO) contrib.            0.033019588822 Eh   ::
         :::::::::::::::::::::::::::::::::::::::::::::::::::::

           -------------------------------------------------
          | TOTAL ENERGY               -8.890718868030 Eh   |
          | TOTAL ENTHALPY             -8.857234568473 Eh   |
          | TOTAL FREE ENERGY          -8.857699279209 Eh   |
          | GRADIENT NORM               0.000455624548 Eh/Î± |
          | HOMO-LUMO GAP               2.908621990989 eV   |
           -------------------------------------------------

 * finished run on 2020/05/12 at 11:45:24.247
