   * xtb version 6.2.2 (9d81278992624c895f80dd42a50cac0aa55982e2) compiled by '@Darwin' on 04/03/2020
          program call               : xtb --input H2C1N1_1_S_3.input H2C1N1_1_S_3.xyz --ohess --molden --namespace H2C1N1_1_S_3 output.out
          number of atoms            :                     4
          number of electrons        :                    11
          charge                     :                     0
          spin                       :                   1.5

   ID    Z sym.   atoms
    1    6 C      1
    2    7 N      2
    3    1 H      3, 4

          :  Hamiltonian                  GFN2-xTB          :
 * total energy  :    -5.7520881 Eh     change        0.7063150E-09 Eh
 * total energy  :    -5.7583581 Eh     change       -0.6269985E-02 Eh
 * total energy  :    -5.7579407 Eh     change        0.4174206E-03 Eh
 * total energy  :    -5.7607497 Eh     change       -0.2809045E-02 Eh
 * total energy  :    -5.7608232 Eh     change       -0.7346621E-04 Eh
 * total energy  :    -5.7608299 Eh     change       -0.6740701E-05 Eh
 * total energy  :    -5.7608306 Eh     change       -0.6459149E-06 Eh
   *** GEOMETRY OPTIMIZATION CONVERGED AFTER 7 ITERATIONS ***

 final structure:
================
4
 xtb: 6.2.2 (9d81278992624c895f80dd42a50cac0aa55982e2)
C         0.61366042636967    0.40582275461252   -0.26385009237202
N        -0.65432191607933    0.32355865063341    0.21302646070180
H         1.26753776806958   -0.31266566167120    0.26273227769820
H        -1.22687627835992   -0.41671574357472   -0.21190864602798

          :  Hamiltonian                  GFN2-xTB          :
         :: gradient norm              0.000259800522 Eh/a0 ::
         :: HOMO-LUMO gap             10.467193963862 eV    ::
         :: SCC energy                -5.814284388089 Eh    ::
         :: -> dispersion             -0.000722438638 Eh    ::
         :: repulsion energy           0.053453807993 Eh    ::

    * Orbital Energies and Occupations

         #    Occupation            Energy/Eh            Energy/eV
      -------------------------------------------------------------
         1        2.0000           -0.6346525             -17.2698
         2        2.0000           -0.5661798             -15.4065
         3        2.0000           -0.5133020             -13.9677
         4        2.0000           -0.4657416             -12.6735
         5        1.0000           -0.4468700             -12.1600
         6        1.0000           -0.3295527              -8.9676
         7        1.0000           -0.2916445              -7.9360 (HOMO)
         8                          0.0930180               2.5311 (LUMO)
         9                          0.1754471               4.7742
        10                          0.2731413               7.4326
      -------------------------------------------------------------
                  HL-Gap            0.3846625 Eh           10.4672 eV

     #   Z        covCN         q      C6AA      Î±(0)
     1   6 C      1.832    -0.088    33.581     9.362
     2   7 N      1.769    -0.182    25.713     7.508
     3   1 H      0.922     0.096     1.818     2.109
     4   1 H      0.859     0.173     1.254     1.754

Wiberg/Mayer (AO) data.
largest (>0.10) Wiberg bond orders for each atom
          total WBO             WBO to atom ...

molecular dipole:
                 x           y           z       tot (Debye)
 q only:       -0.048      -0.372      -0.051
   full:        0.012      -0.561      -0.112       1.455

 projected vibrational frequencies (cm-1)
Molecule has no symmetry elements
It seems to be the C1 point group
eigval :       -0.00    -0.00     0.00     0.00     0.00     0.00
eigval :      681.11   927.50  1095.12  1353.07  2696.38  3083.28

   temp. (K)  partition function   enthalpy   heat capacity  entropy
                                   cal/mol     cal/K/mol   cal/K/mol   J/K/mol
  10.00  VIB   1.00                    0.000      0.000     -0.000
         ROT   9.44                   29.809      2.981      7.442
         INT   9.44                   29.809      2.981      7.442
         TR   0.882E+24               49.681      4.968     19.052
         TOT                          79.4904     7.9490    26.4943   110.8522

       T/K    H(0)-H(T)+PV         H(T)/Eh          T*S/Eh         G(T)/Eh
   ------------------------------------------------------------------------
    298.15    0.398045E-02    0.263896E-01    0.256634E-01    0.726111E-03
    120.00    0.152107E-02    0.239302E-01    0.884384E-02    0.150863E-01
    100.00    0.126694E-02    0.236760E-01    0.713828E-02    0.165378E-01
     80.00    0.101342E-02    0.234225E-01    0.548442E-02    0.179381E-01
     60.00    0.760056E-03    0.231692E-01    0.389471E-02    0.192744E-01
     40.00    0.506704E-03    0.229158E-01    0.239109E-02    0.205247E-01
     20.00    0.253352E-03    0.226625E-01    0.101999E-02    0.216425E-01
     10.00    0.126676E-03    0.225358E-01    0.422214E-03    0.221136E-01 (used)
   ------------------------------------------------------------------------

         :::::::::::::::::::::::::::::::::::::::::::::::::::::
         ::                  THERMODYNAMIC                  ::
         :::::::::::::::::::::::::::::::::::::::::::::::::::::
         :: total free energy          -5.738717012466 Eh   ::
         ::.................................................::
         :: total energy               -5.760830578260 Eh   ::
         :: zero point energy           0.022409103487 Eh   ::
         :: G(RRHO) w/o ZPVE           -0.000295537692 Eh   ::
         :: G(RRHO) contrib.            0.022113565795 Eh   ::
         :::::::::::::::::::::::::::::::::::::::::::::::::::::

           -------------------------------------------------
          | TOTAL ENERGY               -5.760830578260 Eh   |
          | TOTAL ENTHALPY             -5.738294798758 Eh   |
          | TOTAL FREE ENERGY          -5.738717012466 Eh   |
          | GRADIENT NORM               0.000259788854 Eh/Î± |
          | HOMO-LUMO GAP              10.467199363263 eV   |
           -------------------------------------------------

 * finished run on 2020/05/12 at 11:43:50.249
