   * xtb version 6.2.2 (9d81278992624c895f80dd42a50cac0aa55982e2) compiled by '@Darwin' on 04/03/2020
          program call               : xtb --input C1N1O1_1_S_3.input C1N1O1_1_S_3.xyz --ohess --molden --namespace C1N1O1_1_S_3 output.out
          number of atoms            :                     3
          number of electrons        :                    15
          charge                     :                     0
          spin                       :                   1.5

   ID    Z sym.   atoms
    1    7 N      1
    2    8 O      2
    3    6 C      3

          :  Hamiltonian                  GFN2-xTB          :
 * total energy  :    -8.7456134 Eh     change       -0.1095479E-10 Eh
 * total energy  :    -8.7756868 Eh     change       -0.3007338E-01 Eh
 * total energy  :    -8.7797085 Eh     change       -0.4021667E-02 Eh
 * total energy  :    -8.7811100 Eh     change       -0.1401496E-02 Eh
 * total energy  :    -8.7811690 Eh     change       -0.5902162E-04 Eh
 * total energy  :    -8.7811697 Eh     change       -0.6962537E-06 Eh
   *** GEOMETRY OPTIMIZATION CONVERGED AFTER 6 ITERATIONS ***

 final structure:
================
3
 xtb: 6.2.2 (9d81278992624c895f80dd42a50cac0aa55982e2)
N        -0.05244235566462    0.40795470525149    0.00000000000000
O        -1.08827031210759   -0.21423989552127   -0.00000000000000
C         1.14071266777222   -0.19371580973022    0.00000000000000

          :  Hamiltonian                  GFN2-xTB          :
         :: gradient norm              0.000594131345 Eh/a0 ::
         :: HOMO-LUMO gap              1.294310070142 eV    ::
         :: SCC energy                -8.825698375664 Eh    ::
         :: -> dispersion             -0.000795369639 Eh    ::
         :: repulsion energy           0.044528689281 Eh    ::

    * Orbital Energies and Occupations

         #    Occupation            Energy/Eh            Energy/eV
      -------------------------------------------------------------
         1        2.0000           -0.8105850             -22.0571
         2        2.0000           -0.7192418             -19.5716
         3        2.0000           -0.6618443             -18.0097
         4        2.0000           -0.6430503             -17.4983
         5        2.0000           -0.6093256             -16.5806
         6        2.0000           -0.5199959             -14.1498
         7        1.0000           -0.4573570             -12.4453
         8        1.0000           -0.4339053             -11.8072
         9        1.0000           -0.3516736              -9.5695 (HOMO)
        10                         -0.3041086              -8.2752 (LUMO)
        11                          0.1595987               4.3429
        12                          0.3429000               9.3308
      -------------------------------------------------------------
                  HL-Gap            0.0475651 Eh            1.2943 eV

     #   Z        covCN         q      C6AA      Î±(0)
     1   7 N      1.833     0.244    17.847     6.260
     2   8 O      0.934    -0.126    16.881     5.510
     3   6 C      0.921    -0.118    39.250    10.490

Wiberg/Mayer (AO) data.
largest (>0.10) Wiberg bond orders for each atom
          total WBO             WBO to atom ...

molecular dipole:
                 x           y           z       tot (Debye)
 q only:       -0.018       0.282      -0.000
   full:       -0.188       0.330       0.000       0.965

 projected vibrational frequencies (cm-1)
eigval :       -0.00    -0.00     0.00     0.00     0.00     0.00
eigval :      567.07  1254.48  1497.76

   temp. (K)  partition function   enthalpy   heat capacity  entropy
                                   cal/mol     cal/K/mol   cal/K/mol   J/K/mol
  10.00  VIB   1.00                    0.000      0.000     -0.000
         ROT   31.5                   29.809      2.981      9.835
         INT   31.5                   29.809      2.981      9.835
         TR   0.162E+25               49.681      4.968     20.258
         TOT                          79.4904     7.9490    30.0930   125.9090

       T/K    H(0)-H(T)+PV         H(T)/Eh          T*S/Eh         G(T)/Eh
   ------------------------------------------------------------------------
    298.15    0.397429E-02    0.115362E-01    0.273804E-01   -0.158441E-01
    120.00    0.152300E-02    0.908495E-02    0.953427E-02   -0.449322E-03
    100.00    0.126750E-02    0.882945E-02    0.771241E-02    0.111704E-02
     80.00    0.101350E-02    0.857545E-02    0.594330E-02    0.263215E-02
     60.00    0.760059E-03    0.832201E-02    0.423881E-02    0.408320E-02
     40.00    0.506704E-03    0.806865E-02    0.262048E-02    0.544817E-02
     20.00    0.253352E-03    0.781530E-02    0.113468E-02    0.668062E-02
     10.00    0.126676E-03    0.768862E-02    0.479562E-03    0.720906E-02 (used)
   ------------------------------------------------------------------------

         :::::::::::::::::::::::::::::::::::::::::::::::::::::
         ::                  THERMODYNAMIC                  ::
         :::::::::::::::::::::::::::::::::::::::::::::::::::::
         :: total free energy          -8.773960624758 Eh   ::
         ::.................................................::
         :: total energy               -8.781169686680 Eh   ::
         :: zero point energy           0.007561947937 Eh   ::
         :: G(RRHO) w/o ZPVE           -0.000352886015 Eh   ::
         :: G(RRHO) contrib.            0.007209061922 Eh   ::
         :::::::::::::::::::::::::::::::::::::::::::::::::::::

           -------------------------------------------------
          | TOTAL ENERGY               -8.781169686680 Eh   |
          | TOTAL ENTHALPY             -8.773481062727 Eh   |
          | TOTAL FREE ENERGY          -8.773960624758 Eh   |
          | GRADIENT NORM               0.000593762885 Eh/Î± |
          | HOMO-LUMO GAP               1.294311111244 eV   |
           -------------------------------------------------

 * finished run on 2020/05/12 at 11:44:41.196
