   * xtb version 6.2.2 (9d81278992624c895f80dd42a50cac0aa55982e2) compiled by '@Darwin' on 04/03/2020
          program call               : xtb --input H1C3N1_27_S_0.input H1C3N1_27_S_0.xyz --ohess --molden --namespace H1C3N1_27_S_0 output.out
          number of atoms            :                     5
          number of electrons        :                    18
          charge                     :                     0
          spin                       :                   0.0

   ID    Z sym.   atoms
    1    6 C      1-3
    2    7 N      4
    3    1 H      5

          :  Hamiltonian                  GFN2-xTB          :
 * total energy  :    -9.5156614 Eh     change       -0.1938190E-08 Eh
 * total energy  :    -9.5570022 Eh     change       -0.4134083E-01 Eh
 * total energy  :    -9.5772103 Eh     change       -0.2020814E-01 Eh
 * total energy  :    -9.5782364 Eh     change       -0.1026007E-02 Eh
 * total energy  :    -9.5784171 Eh     change       -0.1807942E-03 Eh
 * total energy  :    -9.5784391 Eh     change       -0.2190630E-04 Eh
 * total energy  :    -9.5784563 Eh     change       -0.1722393E-04 Eh
 * total energy  :    -9.5784613 Eh     change       -0.4974221E-05 Eh
   *** GEOMETRY OPTIMIZATION CONVERGED AFTER 8 ITERATIONS ***

 final structure:
================
5
 xtb: 6.2.2 (9d81278992624c895f80dd42a50cac0aa55982e2)
C        -0.97986856365756   -0.52347592954565   -0.28029697059370
C        -0.00613440899358    0.51486752230590   -0.18357787932824
C         0.97687473444953   -0.51128939537341   -0.31150176247699
N         0.01441760571039   -0.96997205423262    0.52521070834371
H        -0.00529036750876    1.48987085684577    0.25016590405523

          :  Hamiltonian                  GFN2-xTB          :
         :: gradient norm              0.000909825101 Eh/a0 ::
         :: HOMO-LUMO gap              3.337056838984 eV    ::
         :: SCC energy                -9.700203883647 Eh    ::
         :: -> dispersion             -0.001960417959 Eh    ::
         :: repulsion energy           0.121742603304 Eh    ::

    * Orbital Energies and Occupations

         #    Occupation            Energy/Eh            Energy/eV
      -------------------------------------------------------------
         1        2.0000           -0.7535124             -20.5041
         2        2.0000           -0.6490027             -17.6603
         3        2.0000           -0.6337738             -17.2459
         4        2.0000           -0.5887476             -16.0206
         5        2.0000           -0.5466876             -14.8761
         6        2.0000           -0.5262607             -14.3203
         7        2.0000           -0.4665186             -12.6946
         8        2.0000           -0.4600157             -12.5177
         9        2.0000           -0.4292411             -11.6802 (HOMO)
        10                         -0.3066065              -8.3432 (LUMO)
        11                         -0.3062512              -8.3335
        12                         -0.2565117              -6.9800
        13                          0.0386698               1.0523
        14                          0.0465081               1.2655
        15                          0.1887422               5.1359
        16                          0.2429598               6.6113
        17                          0.5164139              14.0523
      -------------------------------------------------------------
                  HL-Gap            0.1226346 Eh            3.3371 eV

     #   Z        covCN         q      C6AA      Î±(0)
     1   6 C      2.468    -0.069    30.011     8.943
     2   6 C      3.751     0.093    19.103     6.233
     3   6 C      2.468    -0.069    30.011     8.943
     4   7 N      2.684    -0.035    21.928     6.955
     5   1 H      0.927     0.080     1.977     2.199

Wiberg/Mayer (AO) data.
largest (>0.10) Wiberg bond orders for each atom
          total WBO             WBO to atom ...

molecular dipole:
                 x           y           z       tot (Debye)
 q only:       -0.002       0.515       0.048
   full:        0.001       0.902       0.391       2.499

 projected vibrational frequencies (cm-1)
eigval :       -0.00    -0.00    -0.00     0.00     0.00     0.00
eigval :      605.71   728.18   732.40   822.58   916.36  1189.12
eigval :     1330.23  1471.21  3195.28

   temp. (K)  partition function   enthalpy   heat capacity  entropy
                                   cal/mol     cal/K/mol   cal/K/mol   J/K/mol
  10.00  VIB   1.00                    0.000      0.000     -0.000
         ROT   80.8                   29.809      2.981     11.709
         INT   80.8                   29.809      2.981     11.709
         TR   0.217E+25               49.681      4.968     20.838
         TOT                          79.4904     7.9490    32.5467   136.1753

       T/K    H(0)-H(T)+PV         H(T)/Eh          T*S/Eh         G(T)/Eh
   ------------------------------------------------------------------------
    298.15    0.429165E-02    0.293311E-01    0.289409E-01    0.390205E-03
    120.00    0.152337E-02    0.265629E-01    0.100039E-01    0.165590E-01
    100.00    0.126743E-02    0.263069E-01    0.810336E-02    0.182036E-01
     80.00    0.101347E-02    0.260530E-01    0.625610E-02    0.197969E-01
     60.00    0.760058E-03    0.257996E-01    0.447343E-02    0.213261E-01
     40.00    0.506704E-03    0.255462E-01    0.277689E-02    0.227693E-01
     20.00    0.253352E-03    0.252928E-01    0.121289E-02    0.240800E-01
     10.00    0.126676E-03    0.251662E-01    0.518664E-03    0.246475E-01 (used)
   ------------------------------------------------------------------------

         :::::::::::::::::::::::::::::::::::::::::::::::::::::
         ::                  THERMODYNAMIC                  ::
         :::::::::::::::::::::::::::::::::::::::::::::::::::::
         :: total free energy          -9.553813743373 Eh   ::
         ::.................................................::
         :: total energy               -9.578461252118 Eh   ::
         :: zero point energy           0.025039497050 Eh   ::
         :: G(RRHO) w/o ZPVE           -0.000391988304 Eh   ::
         :: G(RRHO) contrib.            0.024647508745 Eh   ::
         :::::::::::::::::::::::::::::::::::::::::::::::::::::

           -------------------------------------------------
          | TOTAL ENERGY               -9.578461252118 Eh   |
          | TOTAL ENTHALPY             -9.553295079053 Eh   |
          | TOTAL FREE ENERGY          -9.553813743373 Eh   |
          | GRADIENT NORM               0.000909829889 Eh/Î± |
          | HOMO-LUMO GAP               3.337056261937 eV   |
           -------------------------------------------------

 * finished run on 2020/05/12 at 11:45:00.927
