   * xtb version 6.2.2 (9d81278992624c895f80dd42a50cac0aa55982e2) compiled by '@Darwin' on 04/03/2020
          program call               : xtb --input C4N1_23_S_1.input C4N1_23_S_1.xyz --ohess --molden --namespace C4N1_23_S_1 output.out
          number of atoms            :                     5
          number of electrons        :                    21
          charge                     :                     0
          spin                       :                   0.5

   ID    Z sym.   atoms
    1    7 N      1
    2    6 C      2-5

          :  Hamiltonian                  GFN2-xTB          :
 * total energy  :   -10.9652035 Eh     change       -0.8281198E-10 Eh
 * total energy  :   -11.0336944 Eh     change       -0.6849098E-01 Eh
 * total energy  :   -11.0223850 Eh     change        0.1130940E-01 Eh
 * total energy  :   -11.0736817 Eh     change       -0.5129662E-01 Eh
 * total energy  :   -11.0763787 Eh     change       -0.2697004E-02 Eh
 * total energy  :   -11.0780740 Eh     change       -0.1695359E-02 Eh
 * total energy  :   -11.0783998 Eh     change       -0.3258220E-03 Eh
 * total energy  :   -11.0784445 Eh     change       -0.4462200E-04 Eh
 * total energy  :   -11.0785025 Eh     change       -0.5800912E-04 Eh
 * total energy  :   -11.0789346 Eh     change       -0.4321193E-03 Eh
 * total energy  :   -11.0863364 Eh     change       -0.3315916E-02 Eh
 * total energy  :   -11.0870720 Eh     change       -0.7355660E-03 Eh
 * total energy  :   -11.0873898 Eh     change       -0.3177916E-03 Eh
 * total energy  :   -11.0875868 Eh     change       -0.1970470E-03 Eh
 * total energy  :   -11.0877661 Eh     change       -0.1792870E-03 Eh
 * total energy  :   -11.0879937 Eh     change       -0.2276230E-03 Eh
 * total energy  :   -11.0880411 Eh     change       -0.4736526E-04 Eh
 * total energy  :   -11.0880551 Eh     change       -0.1399625E-04 Eh
 * total energy  :   -11.0880566 Eh     change       -0.1467773E-05 Eh
   *** GEOMETRY OPTIMIZATION CONVERGED AFTER 21 ITERATIONS ***

 final structure:
================
5
 xtb: 6.2.2 (9d81278992624c895f80dd42a50cac0aa55982e2)
N         1.32030101181970    0.02131913946188    0.16576646688387
C         0.42548535085457   -0.90029659150714   -0.20656251387020
C        -0.87755747493995   -0.59808163183945    0.19113052249815
C         0.23634909502573    0.77038748724137    0.07515886692860
C        -1.10457898276006    0.70667159664334   -0.22549434244042

          :  Hamiltonian                  GFN2-xTB          :
         :: gradient norm              0.000602563551 Eh/a0 ::
         :: HOMO-LUMO gap              1.655647482186 eV    ::
         :: SCC energy               -11.253564383772 Eh    ::
         :: -> dispersion             -0.002698286636 Eh    ::
         :: repulsion energy           0.165507795702 Eh    ::

    * Orbital Energies and Occupations

         #    Occupation            Energy/Eh            Energy/eV
      -------------------------------------------------------------
         1        2.0000           -0.7589903             -20.6532
         2        2.0000           -0.6959669             -18.9382
         3        2.0000           -0.6490829             -17.6624
         4        2.0000           -0.6017543             -16.3746
         5        2.0000           -0.5853431             -15.9280
         6        2.0000           -0.5724882             -15.5782
         7        2.0000           -0.5132091             -13.9651
         8        2.0000           -0.4753357             -12.9345
         9        2.0000           -0.4580773             -12.4649
        10        2.0000           -0.4387792             -11.9398
        11        1.0000           -0.4091302             -11.1330 (HOMO)
        12                         -0.3482863              -9.4774 (LUMO)
        13                         -0.3002622              -8.1705
        14                         -0.2560139              -6.9665
        15                         -0.2315830              -6.3017
        16                          0.0962265               2.6185
        17                          0.2366430               6.4394
        18                          0.2832432               7.7074
        19                          0.3187026               8.6723
        20                          0.5810828              15.8121
      -------------------------------------------------------------
                  HL-Gap            0.0608439 Eh            1.6556 eV

     #   Z        covCN         q      C6AA      Î±(0)
     1   7 N      1.851    -0.138    24.775     7.377
     2   6 C      2.934     0.062    26.604     8.459
     3   6 C      2.864     0.000    28.016     8.676
     4   6 C      3.687     0.145    18.424     6.144
     5   6 C      2.082    -0.069    32.791     9.251

Wiberg/Mayer (AO) data.
largest (>0.10) Wiberg bond orders for each atom
          total WBO             WBO to atom ...

molecular dipole:
                 x           y           z       tot (Debye)
 q only:       -0.086       0.006      -0.017
   full:       -0.078       0.013       0.058       0.250

 projected vibrational frequencies (cm-1)
eigval :       -0.00    -0.00     0.00     0.00     0.00     0.00
eigval :      240.20   410.87   526.10   685.78   925.99  1006.09
eigval :     1057.27  1330.12  1567.53

   temp. (K)  partition function   enthalpy   heat capacity  entropy
                                   cal/mol     cal/K/mol   cal/K/mol   J/K/mol
  10.00  VIB   1.00                    0.000      0.000     -0.003
         ROT   162.                   29.809      2.981     13.086
         INT   162.                   29.809      2.981     13.082
         TR   0.290E+25               49.681      4.968     21.419
         TOT                          79.4904     7.9490    34.5018   144.3553

       T/K    H(0)-H(T)+PV         H(T)/Eh          T*S/Eh         G(T)/Eh
   ------------------------------------------------------------------------
    298.15    0.502822E-02    0.226839E-01    0.310989E-01   -0.841500E-02
    120.00    0.160421E-02    0.192599E-01    0.104845E-01    0.877535E-02
    100.00    0.130892E-02    0.189646E-01    0.846821E-02    0.104964E-01
     80.00    0.102952E-02    0.186852E-01    0.652548E-02    0.121597E-01
     60.00    0.763623E-03    0.184193E-01    0.466489E-02    0.137544E-01
     40.00    0.506898E-03    0.181626E-01    0.290192E-02    0.152607E-01
     20.00    0.253352E-03    0.179090E-01    0.127525E-02    0.166338E-01
     10.00    0.126676E-03    0.177824E-01    0.549820E-03    0.172325E-01 (used)
   ------------------------------------------------------------------------

         :::::::::::::::::::::::::::::::::::::::::::::::::::::
         ::                  THERMODYNAMIC                  ::
         :::::::::::::::::::::::::::::::::::::::::::::::::::::
         :: total free energy         -11.070824024564 Eh   ::
         ::.................................................::
         :: total energy              -11.088056562634 Eh   ::
         :: zero point energy           0.017655682486 Eh   ::
         :: G(RRHO) w/o ZPVE           -0.000423144416 Eh   ::
         :: G(RRHO) contrib.            0.017232538070 Eh   ::
         :::::::::::::::::::::::::::::::::::::::::::::::::::::

           -------------------------------------------------
          | TOTAL ENERGY              -11.088056562634 Eh   |
          | TOTAL ENTHALPY            -11.070274204132 Eh   |
          | TOTAL FREE ENERGY         -11.070824024564 Eh   |
          | GRADIENT NORM               0.000602371226 Eh/Î± |
          | HOMO-LUMO GAP               1.655646620384 eV   |
           -------------------------------------------------

 * finished run on 2020/05/12 at 11:44:08.194
