   * xtb version 6.2.2 (9d81278992624c895f80dd42a50cac0aa55982e2) compiled by '@Darwin' on 04/03/2020
          program call               : xtb --input H3C2_0_S_1.input H3C2_0_S_1.xyz --ohess --molden --namespace H3C2_0_S_1 output.out
          number of atoms            :                     5
          number of electrons        :                    11
          charge                     :                     0
          spin                       :                   0.5

   ID    Z sym.   atoms
    1    6 C      1, 2
    2    1 H      3-5

          :  Hamiltonian                  GFN2-xTB          :
 * total energy  :    -5.5818577 Eh     change       -0.3377973E-09 Eh
 * total energy  :    -5.5845844 Eh     change       -0.2726674E-02 Eh
 * total energy  :    -5.5848728 Eh     change       -0.2884354E-03 Eh
 * total energy  :    -5.5848899 Eh     change       -0.1708881E-04 Eh
 * total energy  :    -5.5848912 Eh     change       -0.1265737E-05 Eh
   *** GEOMETRY OPTIMIZATION CONVERGED AFTER 5 ITERATIONS ***

 final structure:
================
5
 xtb: 6.2.2 (9d81278992624c895f80dd42a50cac0aa55982e2)
C        -0.05730306376267   -0.00582819340335   -0.00087877262730
C         1.37889511289303    0.14025009819408    0.02115140359605
H        -0.35828518788478   -0.74022686805664   -0.75731983495566
H        -0.53823012021931    0.95058445833708   -0.23777272434929
H        -0.42507674102627   -0.34477849507118    0.97482092833621

          :  Hamiltonian                  GFN2-xTB          :
         :: gradient norm              0.000609127281 Eh/a0 ::
         :: HOMO-LUMO gap              0.000000010143 eV    ::
         :: SCC energy                -5.656919696269 Eh    ::
         :: -> dispersion             -0.001026469112 Eh    ::
         :: repulsion energy           0.072028493779 Eh    ::

    * Orbital Energies and Occupations

         #    Occupation            Energy/Eh            Energy/eV
      -------------------------------------------------------------
         1        2.0000           -0.6345533             -17.2671
         2        2.0000           -0.5633500             -15.3295
         3        2.0000           -0.5038662             -13.7109
         4        2.0000           -0.5038662             -13.7109
         5        2.0000           -0.4168354             -11.3427
         6        0.5000           -0.3160839              -8.6011 (HOMO)
         7        0.5000           -0.3160839              -8.6011 (LUMO)
         8                          0.1451146               3.9488
         9                          0.1960501               5.3348
        10                          0.1960502               5.3348
        11                          0.2391767               6.5083
      -------------------------------------------------------------
Molecule has the following symmetry elements: (C3) 3*(sigma)
It seems to be the C3v point group
                  HL-Gap            0.0000000 Eh            0.0000 eV

     #   Z        covCN         q      C6AA      Î±(0)
     1   6 C      3.750    -0.066    21.836     6.664
     2   6 C      0.979    -0.184    42.028    10.888
     3   1 H      0.924     0.083     1.944     2.180
     4   1 H      0.924     0.083     1.944     2.180
     5   1 H      0.924     0.083     1.944     2.180

Wiberg/Mayer (AO) data.
largest (>0.10) Wiberg bond orders for each atom
          total WBO             WBO to atom ...

molecular dipole:
                 x           y           z       tot (Debye)
 q only:       -0.680      -0.069      -0.010
   full:       -1.186      -0.121      -0.018       3.029

 projected vibrational frequencies (cm-1)
eigval :       -0.00    -0.00    -0.00    -0.00    -0.00     0.00
eigval :      614.33   614.34  1165.07  1291.61  1355.25  1355.28
eigval :     2887.31  2887.34  2914.80

   temp. (K)  partition function   enthalpy   heat capacity  entropy
                                   cal/mol     cal/K/mol   cal/K/mol   J/K/mol
  10.00  VIB   1.00                    0.000      0.000     -0.000
         ROT   4.86                   29.809      2.981      6.122
         INT   4.86                   29.809      2.981      6.122
         TR   0.836E+24               49.681      4.968     18.945
         TOT                          79.4904     7.9490    25.0674   104.8819

       T/K    H(0)-H(T)+PV         H(T)/Eh          T*S/Eh         G(T)/Eh
   ------------------------------------------------------------------------
    298.15    0.413007E-02    0.384970E-01    0.251902E-01    0.133068E-01
    120.00    0.152366E-02    0.358906E-01    0.857395E-02    0.273166E-01
    100.00    0.126757E-02    0.356345E-01    0.691161E-02    0.287229E-01
     80.00    0.101350E-02    0.353804E-01    0.530259E-02    0.300778E-01
     60.00    0.760058E-03    0.351270E-01    0.375828E-02    0.313687E-01
     40.00    0.506704E-03    0.348736E-01    0.230013E-02    0.325735E-01
     20.00    0.253352E-03    0.346203E-01    0.974507E-03    0.336458E-01
     10.00    0.126676E-03    0.344936E-01    0.399474E-03    0.340941E-01 (used)
   ------------------------------------------------------------------------

         :::::::::::::::::::::::::::::::::::::::::::::::::::::
         ::                  THERMODYNAMIC                  ::
         :::::::::::::::::::::::::::::::::::::::::::::::::::::
         :: total free energy          -5.550797072454 Eh   ::
         ::.................................................::
         :: total energy               -5.584891184894 Eh   ::
         :: zero point energy           0.034366910384 Eh   ::
         :: G(RRHO) w/o ZPVE           -0.000272797944 Eh   ::
         :: G(RRHO) contrib.            0.034094112440 Eh   ::
         :::::::::::::::::::::::::::::::::::::::::::::::::::::

           -------------------------------------------------
          | TOTAL ENERGY               -5.584891184894 Eh   |
          | TOTAL ENTHALPY             -5.550397598494 Eh   |
          | TOTAL FREE ENERGY          -5.550797072454 Eh   |
          | GRADIENT NORM               0.000609145837 Eh/Î± |
          | HOMO-LUMO GAP               0.000000025465 eV   |
           -------------------------------------------------

 * finished run on 2020/05/12 at 11:45:12.451
