   * xtb version 6.2.2 (9d81278992624c895f80dd42a50cac0aa55982e2) compiled by '@Darwin' on 04/03/2020
          program call               : xtb --input H2C2O1_8_S_2.input H2C2O1_8_S_2.xyz --ohess --molden --namespace H2C2O1_8_S_2 output.out
          number of atoms            :                     5
          number of electrons        :                    16
          charge                     :                     0
          spin                       :                   1.0

   ID    Z sym.   atoms
    1    6 C      1, 2
    2    8 O      3
    3    1 H      4, 5

          :  Hamiltonian                  GFN2-xTB          :
 * total energy  :    -9.1211455 Eh     change        0.1173378E-08 Eh
 * total energy  :    -9.1340994 Eh     change       -0.1295387E-01 Eh
 * total energy  :    -9.1395862 Eh     change       -0.5486783E-02 Eh
 * total energy  :    -9.1407483 Eh     change       -0.1162110E-02 Eh
 * total energy  :    -9.1410951 Eh     change       -0.3468420E-03 Eh
 * total energy  :    -9.1411156 Eh     change       -0.2046553E-04 Eh
 * total energy  :    -9.1411160 Eh     change       -0.4149591E-06 Eh
 * total energy  :    -9.1411171 Eh     change       -0.1074252E-05 Eh
   *** GEOMETRY OPTIMIZATION CONVERGED AFTER 8 ITERATIONS ***

 final structure:
================
5
 xtb: 6.2.2 (9d81278992624c895f80dd42a50cac0aa55982e2)
C         0.70967856101643    0.05893758516878    0.34459164544552
C        -0.71917161920516    0.04428732874154    0.32663723513011
O        -0.00573666613781    1.00710349804302   -0.36523892683741
H         1.46540360917003   -0.54021645343338   -0.13467723223249
H        -1.45017388484349   -0.57011095851996   -0.17131272150574

          :  Hamiltonian                  GFN2-xTB          :
         :: gradient norm              0.000157457513 Eh/a0 ::
         :: HOMO-LUMO gap              7.005280319161 eV    ::
         :: SCC energy                -9.222059777403 Eh    ::
         :: -> dispersion             -0.001380662808 Eh    ::
         :: repulsion energy           0.080942694876 Eh    ::

    * Orbital Energies and Occupations

         #    Occupation            Energy/Eh            Energy/eV
      -------------------------------------------------------------
         1        2.0000           -0.7494210             -20.3928
         2        2.0000           -0.6461336             -17.5822
         3        2.0000           -0.6230767             -16.9548
         4        2.0000           -0.5797909             -15.7769
         5        2.0000           -0.5279340             -14.3658
         6        2.0000           -0.5272448             -14.3471
         7        2.0000           -0.4753914             -12.9361
         8        1.0000           -0.3623386              -9.8597
         9        1.0000           -0.3388500              -9.2206 (HOMO)
        10                         -0.0814106              -2.2153 (LUMO)
        11                          0.0932935               2.5386
        12                          0.1326743               3.6103
        13                          0.1930749               5.2538
        14                          0.4476851              12.1821
      -------------------------------------------------------------
                  HL-Gap            0.2574393 Eh            7.0053 eV

     #   Z        covCN         q      C6AA      Î±(0)
     1   6 C      2.758     0.039    27.111     8.527
     2   6 C      2.758     0.039    27.111     8.527
     3   8 O      1.704    -0.204    17.401     5.632
     4   1 H      0.926     0.063     2.160     2.298
     5   1 H      0.926     0.063     2.160     2.298

Wiberg/Mayer (AO) data.
largest (>0.10) Wiberg bond orders for each atom
          total WBO             WBO to atom ...

molecular dipole:
                 x           y           z       tot (Debye)
 q only:        0.003      -0.514       0.154
   full:        0.009      -0.564      -0.223       1.541

 projected vibrational frequencies (cm-1)
eigval :       -0.00    -0.00    -0.00     0.00     0.00     0.00
eigval :      795.96   892.26   928.07   975.44  1034.46  1117.83
eigval :     1503.42  3028.91  3040.60

   temp. (K)  partition function   enthalpy   heat capacity  entropy
                                   cal/mol     cal/K/mol   cal/K/mol   J/K/mol
  10.00  VIB   1.00                    0.000      0.000     -0.000
         ROT   43.0                   29.809      2.981     10.456
         INT   43.0                   29.809      2.981     10.456
         TR   0.162E+25               49.681      4.968     20.259
         TOT                          79.4904     7.9490    30.7152   128.5124

       T/K    H(0)-H(T)+PV         H(T)/Eh          T*S/Eh         G(T)/Eh
   ------------------------------------------------------------------------
    298.15    0.406140E-02    0.343996E-01    0.277610E-01    0.663862E-02
    120.00    0.152059E-02    0.318588E-01    0.965047E-02    0.222083E-01
    100.00    0.126682E-02    0.316050E-01    0.781080E-02    0.237943E-01
     80.00    0.101341E-02    0.313516E-01    0.602252E-02    0.253291E-01
     60.00    0.760056E-03    0.310983E-01    0.429830E-02    0.268000E-01
     40.00    0.506704E-03    0.308449E-01    0.266014E-02    0.281848E-01
     20.00    0.253352E-03    0.305916E-01    0.115451E-02    0.294371E-01
     10.00    0.126676E-03    0.304649E-01    0.489478E-03    0.299754E-01 (used)
   ------------------------------------------------------------------------

         :::::::::::::::::::::::::::::::::::::::::::::::::::::
         ::                  THERMODYNAMIC                  ::
         :::::::::::::::::::::::::::::::::::::::::::::::::::::
         :: total free energy          -9.111141636045 Eh   ::
         ::.................................................::
         :: total energy               -9.141117060850 Eh   ::
         :: zero point energy           0.030338226737 Eh   ::
         :: G(RRHO) w/o ZPVE           -0.000362801932 Eh   ::
         :: G(RRHO) contrib.            0.029975424805 Eh   ::
         :::::::::::::::::::::::::::::::::::::::::::::::::::::

           -------------------------------------------------
          | TOTAL ENERGY               -9.141117060850 Eh   |
          | TOTAL ENTHALPY             -9.110652158098 Eh   |
          | TOTAL FREE ENERGY          -9.111141636045 Eh   |
          | GRADIENT NORM               0.000157442840 Eh/Î± |
          | HOMO-LUMO GAP               7.005280317929 eV   |
           -------------------------------------------------

 * finished run on 2020/05/12 at 11:45:15.833
