   * xtb version 6.2.2 (9d81278992624c895f80dd42a50cac0aa55982e2) compiled by '@Darwin' on 04/03/2020
          program call               : xtb --input H1C3_2_S_1.input H1C3_2_S_1.xyz --ohess --molden --namespace H1C3_2_S_1 output.out
          number of atoms            :                     4
          number of electrons        :                    13
          charge                     :                     0
          spin                       :                   0.5

   ID    Z sym.   atoms
    1    6 C      1-3
    2    1 H      4

          :  Hamiltonian                  GFN2-xTB          :
 * total energy  :    -6.5568755 Eh     change       -0.1021378E-08 Eh
 * total energy  :    -6.5979576 Eh     change       -0.4108202E-01 Eh
 * total energy  :    -6.6217539 Eh     change       -0.2379630E-01 Eh
 * total energy  :    -6.6278463 Eh     change       -0.6092488E-02 Eh
 * total energy  :    -6.6310075 Eh     change       -0.3161136E-02 Eh
 * total energy  :    -6.6312379 Eh     change       -0.2303879E-03 Eh
 * total energy  :    -6.6312660 Eh     change       -0.2818497E-04 Eh
 * total energy  :    -6.6312665 Eh     change       -0.4233887E-06 Eh
   *** GEOMETRY OPTIMIZATION CONVERGED AFTER 8 ITERATIONS ***

 final structure:
================
4
 xtb: 6.2.2 (9d81278992624c895f80dd42a50cac0aa55982e2)
C         0.33222375286727   -0.01025961758938   -0.00767336822445
C        -0.88511387053099   -0.67581494348115   -0.02274349058863
C        -0.84029821486503    0.72936775510821    0.06126468902826
H         1.39318833252875   -0.04329319403768   -0.03084783021518

          :  Hamiltonian                  GFN2-xTB          :
         :: gradient norm              0.000439607513 Eh/a0 ::
         :: HOMO-LUMO gap              3.362127119139 eV    ::
         :: SCC energy                -6.750087539525 Eh    ::
         :: -> dispersion             -0.001253260117 Eh    ::
         :: repulsion energy           0.118821062109 Eh    ::

    * Orbital Energies and Occupations

         #    Occupation            Energy/Eh            Energy/eV
      -------------------------------------------------------------
         1        2.0000           -0.6918855             -18.8272
         2        2.0000           -0.5859716             -15.9451
         3        2.0000           -0.5541626             -15.0795
         4        2.0000           -0.5025090             -13.6740
         5        2.0000           -0.4840007             -13.1703
Molecule has the following symmetry elements: (C2) 2*(sigma)
It seems to be the C2v point group
         6        1.9672           -0.4048132             -11.0155
         7        1.0328           -0.3983832             -10.8406 (HOMO)
         8                         -0.2748273              -7.4784 (LUMO)
         9                         -0.2694891              -7.3332
        10                         -0.0046932              -0.1277
        11                          0.0878530               2.3906
        12                          0.3744419              10.1891
        13                          0.6016678              16.3722
      -------------------------------------------------------------
                  HL-Gap            0.1235559 Eh            3.3621 eV

     #   Z        covCN         q      C6AA      Î±(0)
     1   6 C      2.888     0.040    27.092     8.533
     2   6 C      1.960    -0.052    32.481     9.204
     3   6 C      1.960    -0.053    32.504     9.207
     4   1 H      0.927     0.065     2.141     2.288

Wiberg/Mayer (AO) data.
largest (>0.10) Wiberg bond orders for each atom
          total WBO             WBO to atom ...

molecular dipole:
                 x           y           z       tot (Debye)
 q only:        0.368      -0.013      -0.008
   full:        0.989      -0.034      -0.022       2.516

 projected vibrational frequencies (cm-1)
eigval :       -0.00    -0.00     0.00     0.00     0.00     0.00
eigval :    -1076.46   791.93   825.81  1097.53  1685.89  3247.06

   temp. (K)  partition function   enthalpy   heat capacity  entropy
                                   cal/mol     cal/K/mol   cal/K/mol   J/K/mol
  10.00  VIB   1.00                    0.000      0.000     -0.000
         ROT   16.1                   29.809      2.981      8.507
         INT   16.1                   29.809      2.981      8.507
         TR   0.134E+25               49.681      4.968     19.882
         TOT                          79.4904     7.9490    28.3893   118.7809

       T/K    H(0)-H(T)+PV         H(T)/Eh          T*S/Eh         G(T)/Eh
   ------------------------------------------------------------------------
    298.15    0.395632E-02    0.213803E-01    0.265304E-01   -0.515011E-02
    120.00    0.152058E-02    0.189445E-01    0.920567E-02    0.973884E-02
    100.00    0.126683E-02    0.186908E-01    0.744014E-02    0.112506E-01
     80.00    0.101341E-02    0.184373E-01    0.572599E-02    0.127113E-01
     60.00    0.760056E-03    0.181840E-01    0.407590E-02    0.141081E-01
     40.00    0.506704E-03    0.179306E-01    0.251188E-02    0.154188E-01
     20.00    0.253352E-03    0.176773E-01    0.108038E-02    0.165969E-01
     10.00    0.126676E-03    0.175506E-01    0.452412E-03    0.170982E-01 (used)
   ------------------------------------------------------------------------

         :::::::::::::::::::::::::::::::::::::::::::::::::::::
         ::                  THERMODYNAMIC                  ::
         :::::::::::::::::::::::::::::::::::::::::::::::::::::
         :: total free energy          -6.614168279591 Eh   ::
         ::.................................................::
         :: total energy               -6.631266471910 Eh   ::
         :: zero point energy           0.017423928751 Eh   ::
         :: G(RRHO) w/o ZPVE           -0.000325736432 Eh   ::
         :: G(RRHO) contrib.            0.017098192319 Eh   ::
         :::::::::::::::::::::::::::::::::::::::::::::::::::::

           -------------------------------------------------
          | TOTAL ENERGY               -6.631266471910 Eh   |
          | TOTAL ENTHALPY             -6.613715867143 Eh   |
          | TOTAL FREE ENERGY          -6.614168279591 Eh   |
          | GRADIENT NORM               0.000441616506 Eh/Î± |
          | HOMO-LUMO GAP               3.362127017100 eV   |
           -------------------------------------------------

 * finished run on 2020/05/12 at 11:43:51.691
