   * xtb version 6.2.2 (9d81278992624c895f80dd42a50cac0aa55982e2) compiled by '@Darwin' on 04/03/2020
          program call               : xtb --input H1C2_0_S_3.input H1C2_0_S_3.xyz --ohess --molden --namespace H1C2_0_S_3 output.out
          number of atoms            :                     3
          number of electrons        :                     9
          charge                     :                     0
          spin                       :                   1.5

   ID    Z sym.   atoms
    1    6 C      1, 2
    2    1 H      3

          :  Hamiltonian                  GFN2-xTB          :
 * total energy  :    -4.3759332 Eh     change       -0.6624621E-09 Eh
 * total energy  :    -4.3864515 Eh     change       -0.1051833E-01 Eh
 * total energy  :    -4.3873016 Eh     change       -0.8500420E-03 Eh
 * total energy  :    -4.3879220 Eh     change       -0.6203946E-03 Eh
 * total energy  :    -4.3879369 Eh     change       -0.1496073E-04 Eh
 * total energy  :    -4.3879373 Eh     change       -0.3336969E-06 Eh
   *** GEOMETRY OPTIMIZATION CONVERGED AFTER 6 ITERATIONS ***

 final structure:
================
3
 xtb: 6.2.2 (9d81278992624c895f80dd42a50cac0aa55982e2)
C        -0.13480950569025    0.43897766347268    0.00000000000000
C         1.10591683850499   -0.14665340351190   -0.00000000000000
H        -0.97110733281474   -0.29232425996078    0.00000000000000

          :  Hamiltonian                  GFN2-xTB          :
         :: gradient norm              0.000361499045 Eh/a0 ::
         :: HOMO-LUMO gap              1.043196161439 eV    ::
         :: SCC energy                -4.439908299394 Eh    ::
         :: -> dispersion             -0.000564876903 Eh    ::
         :: repulsion energy           0.051971042730 Eh    ::

    * Orbital Energies and Occupations

         #    Occupation            Energy/Eh            Energy/eV
      -------------------------------------------------------------
         1        2.0000           -0.6544743             -17.8092
         2        2.0000           -0.5575891             -15.1728
         3        2.0000           -0.4793474             -13.0437
         4        1.0000           -0.4570531             -12.4370
         5        1.0000           -0.4196222             -11.4185
         6        1.0000           -0.3097527              -8.4288 (HOMO)
         7                         -0.2714159              -7.3856 (LUMO)
         8                          0.1389589               3.7813
Molecule has the following symmetry elements: (sigma)
It seems to be the Cs point group
         9                          0.3559135               9.6849
      -------------------------------------------------------------
                  HL-Gap            0.0383368 Eh            1.0432 eV

     #   Z        covCN         q      C6AA      Î±(0)
     1   6 C      1.902    -0.025    31.775     9.104
     2   6 C      0.980    -0.078    38.361    10.403
     3   1 H      0.921     0.103     1.759     2.074

Wiberg/Mayer (AO) data.
largest (>0.10) Wiberg bond orders for each atom
          total WBO             WBO to atom ...

molecular dipole:
                 x           y           z       tot (Debye)
 q only:       -0.346      -0.056       0.000
   full:       -0.464      -0.168       0.000       1.254

 projected vibrational frequencies (cm-1)
eigval :       -0.00    -0.00    -0.00    -0.00     0.00     0.00
eigval :     1033.18  1401.89  2650.88

   temp. (K)  partition function   enthalpy   heat capacity  entropy
                                   cal/mol     cal/K/mol   cal/K/mol   J/K/mol
  10.00  VIB   1.00                    0.000      0.000     -0.000
         ROT   5.81                   29.809      2.981      6.479
         INT   5.81                   29.809      2.981      6.479
         TR   0.744E+24               49.681      4.968     18.714
         TOT                          79.4904     7.9490    25.1937   105.4104

       T/K    H(0)-H(T)+PV         H(T)/Eh          T*S/Eh         G(T)/Eh
   ------------------------------------------------------------------------
    298.15    0.381665E-02    0.154033E-01    0.248362E-01   -0.943294E-02
    120.00    0.152013E-02    0.131068E-01    0.859405E-02    0.451273E-02
    100.00    0.126676E-02    0.128534E-01    0.693081E-02    0.592261E-02
     80.00    0.101341E-02    0.126001E-01    0.531858E-02    0.728148E-02
     60.00    0.760056E-03    0.123467E-01    0.377035E-02    0.857636E-02
     40.00    0.506704E-03    0.120934E-01    0.230818E-02    0.978518E-02
     20.00    0.253352E-03    0.118400E-01    0.978531E-03    0.108615E-01
     10.00    0.126676E-03    0.117133E-01    0.401487E-03    0.113118E-01 (used)
   ------------------------------------------------------------------------

         :::::::::::::::::::::::::::::::::::::::::::::::::::::
         ::                  THERMODYNAMIC                  ::
         :::::::::::::::::::::::::::::::::::::::::::::::::::::
         :: total free energy          -4.376625416405 Eh   ::
         ::.................................................::
         :: total energy               -4.387937256488 Eh   ::
         :: zero point energy           0.011586651051 Eh   ::
         :: G(RRHO) w/o ZPVE           -0.000274810968 Eh   ::
         :: G(RRHO) contrib.            0.011311840083 Eh   ::
         :::::::::::::::::::::::::::::::::::::::::::::::::::::

           -------------------------------------------------
          | TOTAL ENERGY               -4.387937256488 Eh   |
          | TOTAL ENTHALPY             -4.376223929422 Eh   |
          | TOTAL FREE ENERGY          -4.376625416405 Eh   |
          | GRADIENT NORM               0.000361501893 Eh/Î± |
          | HOMO-LUMO GAP               1.043197725905 eV   |
           -------------------------------------------------

 * finished run on 2020/05/12 at 11:44:43.858
