   * xtb version 6.2.2 (9d81278992624c895f80dd42a50cac0aa55982e2) compiled by '@Darwin' on 04/03/2020
          program call               : xtb --input H2C1N2_5_S_2.input H2C1N2_5_S_2.xyz --ohess --molden --namespace H2C1N2_5_S_2 output.out
          number of atoms            :                     5
          number of electrons        :                    16
          charge                     :                     0
          spin                       :                   1.0

   ID    Z sym.   atoms
    1    7 N      1, 3
    2    6 C      2
    3    1 H      4, 5

          :  Hamiltonian                  GFN2-xTB          :
 * total energy  :    -8.6995082 Eh     change        0.6521006E-11 Eh
 * total energy  :    -8.7337234 Eh     change       -0.3421513E-01 Eh
 * total energy  :    -8.7279297 Eh     change        0.5793697E-02 Eh
 * total energy  :    -8.7420570 Eh     change       -0.1412736E-01 Eh
 * total energy  :    -8.7428326 Eh     change       -0.7755450E-03 Eh
 * total energy  :    -8.7430546 Eh     change       -0.2220418E-03 Eh
 * total energy  :    -8.7431028 Eh     change       -0.4818823E-04 Eh
 * total energy  :    -8.7431352 Eh     change       -0.3236566E-04 Eh
 * total energy  :    -8.7431373 Eh     change       -0.2166852E-05 Eh
   *** GEOMETRY OPTIMIZATION CONVERGED AFTER 9 ITERATIONS ***

 final structure:
================
5
 xtb: 6.2.2 (9d81278992624c895f80dd42a50cac0aa55982e2)
N         0.78009050253132   -0.14691181138638    0.51923418093737
C         1.66546839484325   -0.02385309230915   -0.35059436846622
N        -0.56781762405696   -0.00922642259286    0.20693201030174
H        -0.89195896256487    0.92574106124140   -0.02179927101864
H        -0.98578131075274   -0.74574973495301   -0.35377255175425

          :  Hamiltonian                  GFN2-xTB          :
         :: gradient norm              0.000817533716 Eh/a0 ::
         :: HOMO-LUMO gap              1.409930400597 eV    ::
         :: SCC energy                -8.836913868278 Eh    ::
         :: -> dispersion             -0.001471833435 Eh    ::
         :: repulsion energy           0.093776509377 Eh    ::

    * Orbital Energies and Occupations

         #    Occupation            Energy/Eh            Energy/eV
      -------------------------------------------------------------
         1        2.0000           -0.6821013             -18.5609
         2        2.0000           -0.6316676             -17.1886
         3        2.0000           -0.5897404             -16.0477
         4        2.0000           -0.5746888             -15.6381
         5        2.0000           -0.5065036             -13.7827
         6        2.0000           -0.4505808             -12.2609
         7        2.0000           -0.4442854             -12.0896
         8        1.0000           -0.3730100             -10.1501
         9        1.0000           -0.2810040              -7.6465 (HOMO)
        10                         -0.2291900              -6.2366 (LUMO)
        11                         -0.0169816              -0.4621
        12                          0.1139834               3.1016
        13                          0.1890621               5.1446
        14                          0.5459270              14.8554
      -------------------------------------------------------------
                  HL-Gap            0.0518140 Eh            1.4099 eV

     #   Z        covCN         q      C6AA      Î±(0)
     1   7 N      1.889    -0.031    22.562     7.042
     2   6 C      0.935    -0.154    40.612    10.679
     3   7 N      2.722    -0.166    24.596     7.366
     4   1 H      0.860     0.176     1.238     1.743
     5   1 H      0.860     0.176     1.238     1.743

Wiberg/Mayer (AO) data.
largest (>0.10) Wiberg bond orders for each atom
          total WBO             WBO to atom ...

molecular dipole:
                 x           y           z       tot (Debye)
 q only:       -0.977       0.078      -0.118
   full:       -1.190       0.135      -0.343       3.166

 projected vibrational frequencies (cm-1)
eigval :       -0.00    -0.00    -0.00     0.00     0.00     0.00
eigval :      -71.41   547.05   659.74   904.80   964.77  1409.91
eigval :     1604.31  3287.29  3353.65

   temp. (K)  partition function   enthalpy   heat capacity  entropy
                                   cal/mol     cal/K/mol   cal/K/mol   J/K/mol
  10.00  VIB   1.00                    0.000      0.000     -0.000
         ROT   47.4                   29.809      2.981     10.648
         INT   47.4                   29.809      2.981     10.648
         TR   0.162E+25               49.681      4.968     20.259
         TOT                          79.4904     7.9490    30.9071   129.3155

       T/K    H(0)-H(T)+PV         H(T)/Eh          T*S/Eh         G(T)/Eh
   ------------------------------------------------------------------------
    298.15    0.420388E-02    0.332084E-01    0.280631E-01    0.514530E-02
    120.00    0.152488E-02    0.305294E-01    0.969214E-02    0.208373E-01
    100.00    0.126795E-02    0.302725E-01    0.784268E-02    0.224298E-01
     80.00    0.101356E-02    0.300181E-01    0.604718E-02    0.239709E-01
     60.00    0.760062E-03    0.297646E-01    0.431667E-02    0.254479E-01
     40.00    0.506704E-03    0.295112E-01    0.267238E-02    0.268389E-01
     20.00    0.253352E-03    0.292579E-01    0.116063E-02    0.280973E-01
     10.00    0.126676E-03    0.291312E-01    0.492537E-03    0.286387E-01 (used)
   ------------------------------------------------------------------------

         :::::::::::::::::::::::::::::::::::::::::::::::::::::
         ::                  THERMODYNAMIC                  ::
         :::::::::::::::::::::::::::::::::::::::::::::::::::::
         :: total free energy          -8.714498649597 Eh   ::
         ::.................................................::
         :: total energy               -8.743137332009 Eh   ::
         :: zero point energy           0.029004543170 Eh   ::
         :: G(RRHO) w/o ZPVE           -0.000365860757 Eh   ::
         :: G(RRHO) contrib.            0.028638682413 Eh   ::
         :::::::::::::::::::::::::::::::::::::::::::::::::::::

           -------------------------------------------------
          | TOTAL ENERGY               -8.743137332009 Eh   |
          | TOTAL ENTHALPY             -8.714006112824 Eh   |
          | TOTAL FREE ENERGY          -8.714498649597 Eh   |
          | GRADIENT NORM               0.000817575043 Eh/Î± |
          | HOMO-LUMO GAP               1.409930411776 eV   |
           -------------------------------------------------

 * finished run on 2020/05/12 at 11:45:21.866
