   * xtb version 6.2.2 (9d81278992624c895f80dd42a50cac0aa55982e2) compiled by '@Darwin' on 04/03/2020
          program call               : xtb --input C4N1_14_S_3.input C4N1_14_S_3.xyz --ohess --molden --namespace C4N1_14_S_3 output.out
          number of atoms            :                     5
          number of electrons        :                    21
          charge                     :                     0
          spin                       :                   1.5

   ID    Z sym.   atoms
    1    6 C      1-3, 5
    2    7 N      4

          :  Hamiltonian                  GFN2-xTB          :
 * total energy  :   -10.8648614 Eh     change        0.1039641E-08 Eh
 * total energy  :   -10.9427345 Eh     change       -0.7787317E-01 Eh
 * total energy  :   -10.9798971 Eh     change       -0.3716254E-01 Eh
 * total energy  :   -11.0075867 Eh     change       -0.2768967E-01 Eh
 * total energy  :   -11.0144895 Eh     change       -0.6902787E-02 Eh
 * total energy  :   -11.0211829 Eh     change       -0.6693355E-02 Eh
 * total energy  :   -11.0315898 Eh     change       -0.1040692E-01 Eh
 * total energy  :   -11.0378757 Eh     change       -0.6285866E-02 Eh
 * total energy  :   -11.0542642 Eh     change       -0.1638859E-01 Eh
 * total energy  :   -11.0771016 Eh     change       -0.2283738E-01 Eh
 * total energy  :   -11.0886654 Eh     change       -0.1024020E-04 Eh
 * total energy  :   -11.0886711 Eh     change       -0.5754192E-05 Eh
 * total energy  :   -11.0886871 Eh     change       -0.1598835E-04 Eh
 * total energy  :   -11.0886966 Eh     change       -0.9464872E-05 Eh
 * total energy  :   -11.0887041 Eh     change       -0.7505814E-05 Eh
 * total energy  :   -11.0887084 Eh     change       -0.4281990E-05 Eh
 * total energy  :   -11.0887152 Eh     change       -0.6832311E-05 Eh
 * total energy  :   -11.0887182 Eh     change       -0.3039370E-05 Eh
 * total energy  :   -11.0887192 Eh     change       -0.9974440E-06 Eh
   *** GEOMETRY OPTIMIZATION CONVERGED AFTER 34 ITERATIONS ***

 final structure:
================
5
 xtb: 6.2.2 (9d81278992624c895f80dd42a50cac0aa55982e2)
C        -2.46334450172979   -0.07976388985282   -0.05639180685157
C        -1.22145955171958   -0.00345943468683   -0.01518644778993
C         1.22139319444761   -0.02260710818275    0.01631089014613
N         0.00114289215910    0.22611441609776    0.04939411440951
C         2.46226796684264   -0.12028398337538    0.00587325008586

          :  Hamiltonian                  GFN2-xTB          :
         :: gradient norm              0.000382585138 Eh/a0 ::
         :: HOMO-LUMO gap              4.622758594858 eV    ::
         :: SCC energy               -11.358122856811 Eh    ::
         :: -> dispersion             -0.002705786535 Eh    ::
         :: repulsion energy           0.269404659803 Eh    ::

    * Orbital Energies and Occupations

         #    Occupation            Energy/Eh            Energy/eV
      -------------------------------------------------------------
         1        2.0000           -0.7019147             -19.1001
         2        2.0000           -0.6762324             -18.4012
         3        2.0000           -0.6500951             -17.6900
         4        2.0000           -0.6183407             -16.8259
         5        2.0000           -0.5664809             -15.4147
         6        2.0000           -0.5656931             -15.3933
         7        2.0000           -0.4686838             -12.7535
         8        2.0000           -0.4682603             -12.7420
         9        1.9998           -0.4447028             -12.1010
        10        1.0002           -0.4288278             -11.6690
        11        1.0000           -0.3980240             -10.8308
        12        1.0000           -0.3942620             -10.7284 (HOMO)
        13                         -0.2243787              -6.1057 (LUMO)
        14                         -0.2225040              -6.0546
        15                         -0.1350047              -3.6737
        16                         -0.1223211              -3.3285
        17                          0.0665998               1.8123
        18                          0.4643517              12.6357
        19                          1.0477512              28.5108
        20                          1.3331232              36.2761
      -------------------------------------------------------------
                  HL-Gap            0.1698833 Eh            4.6228 eV

     #   Z        covCN         q      C6AA      Î±(0)
     1   6 C      0.982    -0.105    39.283    10.528
     2   6 C      1.900     0.090    28.862     8.676
     3   6 C      1.900     0.090    28.863     8.677
     4   7 N      1.824     0.031    21.383     6.852
     5   6 C      0.982    -0.105    39.282    10.528

Wiberg/Mayer (AO) data.
largest (>0.10) Wiberg bond orders for each atom
          total WBO             WBO to atom ...

molecular dipole:
                 x           y           z       tot (Debye)
 q only:        0.000       0.048       0.013
   full:        0.000       0.028       0.013       0.078

 projected vibrational frequencies (cm-1)
Molecule has the following symmetry elements: (C2) 2*(sigma)
It seems to be the C2v point group
eigval :       -0.00     0.00     0.00     0.00     0.00     0.00
eigval :      105.29   195.50   288.32   386.05   402.43   879.89
eigval :     1484.92  1749.63  2052.93

   temp. (K)  partition function   enthalpy   heat capacity  entropy
                                   cal/mol     cal/K/mol   cal/K/mol   J/K/mol
  10.00  VIB   1.00                    0.000      0.000     -0.035
         ROT   42.9                   29.809      2.981     10.449
         INT   42.9                   29.809      2.981     10.414
         TR   0.290E+25               49.681      4.968     21.419
         TOT                          79.4905     7.9492    31.8332   133.1903

       T/K    H(0)-H(T)+PV         H(T)/Eh          T*S/Eh         G(T)/Eh
   ------------------------------------------------------------------------
    298.15    0.620007E-02    0.233888E-01    0.322958E-01   -0.890703E-02
    120.00    0.187904E-02    0.190677E-01    0.104160E-01    0.865173E-02
    100.00    0.149239E-02    0.186811E-01    0.832900E-02    0.103521E-01
     80.00    0.113612E-02    0.183248E-01    0.634655E-02    0.119783E-01
     60.00    0.811684E-03    0.180004E-01    0.448103E-02    0.135193E-01
     40.00    0.518658E-03    0.177074E-01    0.275045E-02    0.149569E-01
     20.00    0.253599E-03    0.174423E-01    0.119160E-02    0.162507E-01
     10.00    0.126676E-03    0.173154E-01    0.507295E-03    0.168081E-01 (used)
   ------------------------------------------------------------------------

         :::::::::::::::::::::::::::::::::::::::::::::::::::::
         ::                  THERMODYNAMIC                  ::
         :::::::::::::::::::::::::::::::::::::::::::::::::::::
         :: total free energy         -11.071911173319 Eh   ::
         ::.................................................::
         :: total energy              -11.088719246675 Eh   ::
         :: zero point energy           0.017188692218 Eh   ::
         :: G(RRHO) w/o ZPVE           -0.000380618863 Eh   ::
         :: G(RRHO) contrib.            0.016808073356 Eh   ::
         :::::::::::::::::::::::::::::::::::::::::::::::::::::

           -------------------------------------------------
          | TOTAL ENERGY              -11.088719246675 Eh   |
          | TOTAL ENTHALPY            -11.071403878315 Eh   |
          | TOTAL FREE ENERGY         -11.071911173319 Eh   |
          | GRADIENT NORM               0.000382557163 Eh/Î± |
          | HOMO-LUMO GAP               4.622758671420 eV   |
           -------------------------------------------------

 * finished run on 2020/05/12 at 11:44:04.327
