   * xtb version 6.2.2 (9d81278992624c895f80dd42a50cac0aa55982e2) compiled by '@Darwin' on 04/03/2020
          program call               : xtb --input H2C2O1_3_S_2.input H2C2O1_3_S_2.xyz --ohess --molden --namespace H2C2O1_3_S_2 output.out
          number of atoms            :                     5
          number of electrons        :                    16
          charge                     :                     0
          spin                       :                   1.0

   ID    Z sym.   atoms
    1    6 C      1, 2
    2    8 O      3
    3    1 H      4, 5

          :  Hamiltonian                  GFN2-xTB          :
 * total energy  :    -9.1094144 Eh     change       -0.7173195E-09 Eh
 * total energy  :    -9.1563939 Eh     change       -0.4697949E-01 Eh
 * total energy  :    -9.1583124 Eh     change       -0.1918455E-02 Eh
 * total energy  :    -9.1630908 Eh     change       -0.4778403E-02 Eh
 * total energy  :    -9.1637576 Eh     change       -0.6668296E-03 Eh
 * total energy  :    -9.1638884 Eh     change       -0.1307788E-03 Eh
 * total energy  :    -9.1639439 Eh     change       -0.5555789E-04 Eh
 * total energy  :    -9.1639698 Eh     change       -0.2591878E-04 Eh
 * total energy  :    -9.1644967 Eh     change       -0.5268192E-03 Eh
 * total energy  :    -9.1675121 Eh     change       -0.3015471E-02 Eh
 * total energy  :    -9.1735804 Eh     change        0.8722542E-02 Eh
 * total energy  :    -9.1854320 Eh     change       -0.1185156E-01 Eh
 * total energy  :    -9.1861244 Eh     change       -0.6924429E-03 Eh
 * total energy  :    -9.1882304 Eh     change       -0.2105948E-02 Eh
 * total energy  :    -9.1883370 Eh     change       -0.1066392E-03 Eh
 * total energy  :    -9.1884125 Eh     change       -0.7550146E-04 Eh
 * total energy  :    -9.1884495 Eh     change       -0.3702212E-04 Eh
 * total energy  :    -9.1884578 Eh     change       -0.8254354E-05 Eh
 * total energy  :    -9.1884596 Eh     change       -0.1784556E-05 Eh
   *** GEOMETRY OPTIMIZATION CONVERGED AFTER 22 ITERATIONS ***

 final structure:
================
5
 xtb: 6.2.2 (9d81278992624c895f80dd42a50cac0aa55982e2)
C         0.87880855403477    0.10342967763350    0.22581387540205
C        -0.50915841638758    0.13617348612839    0.05991945862619
O         1.76229818528807   -0.55480317444992   -0.27515100415866
H        -1.10279481665250    0.82935032663713    0.63047939763878
H        -1.02915350628276   -0.51415031594910   -0.64106172750837

          :  Hamiltonian                  GFN2-xTB          :
         :: gradient norm              0.000760945955 Eh/a0 ::
         :: HOMO-LUMO gap              2.625481250109 eV    ::
         :: SCC energy                -9.292256750948 Eh    ::
         :: -> dispersion             -0.001375034660 Eh    ::
         :: repulsion energy           0.103797147725 Eh    ::

    * Orbital Energies and Occupations

         #    Occupation            Energy/Eh            Energy/eV
      -------------------------------------------------------------
         1        2.0000           -0.7222295             -19.6529
         2        2.0000           -0.6497396             -17.6803
         3        2.0000           -0.5895128             -16.0415
         4        2.0000           -0.5506996             -14.9853
         5        2.0000           -0.5432959             -14.7838
         6        2.0000           -0.5343140             -14.5394
         7        2.0000           -0.4904954             -13.3471
         8        1.0000           -0.4110040             -11.1840
         9        1.0000           -0.3065576              -8.3419 (HOMO)
        10                         -0.2100729              -5.7164 (LUMO)
        11                          0.0996517               2.7117
        12                          0.2128564               5.7921
        13                          0.3241362               8.8202
        14                          0.6519629              17.7408
      -------------------------------------------------------------
                  HL-Gap            0.0964847 Eh            2.6255 eV

     #   Z        covCN         q      C6AA      Î±(0)
     1   6 C      1.836     0.122    28.164     8.574
     2   6 C      2.831    -0.046    29.144     8.846
     3   8 O      0.856    -0.252    18.933     5.834
     4   1 H      0.926     0.088     1.894     2.152
     5   1 H      0.925     0.088     1.897     2.154

Wiberg/Mayer (AO) data.
largest (>0.10) Wiberg bond orders for each atom
          total WBO             WBO to atom ...

molecular dipole:
                 x           y           z       tot (Debye)
 q only:       -0.948       0.329       0.176
   full:       -1.165       0.283       0.101       3.058

 projected vibrational frequencies (cm-1)
eigval :       -0.00    -0.00    -0.00    -0.00     0.00     0.00
eigval :      413.75   420.45   795.50   965.69  1149.25  1353.31
eigval :     1755.11  2917.91  3120.41

   temp. (K)  partition function   enthalpy   heat capacity  entropy
                                   cal/mol     cal/K/mol   cal/K/mol   J/K/mol
  10.00  VIB   1.00                    0.000      0.000     -0.001
         ROT   45.2                   29.809      2.981     10.554
         INT   45.2                   29.809      2.981     10.553
         TR   0.162E+25               49.681      4.968     20.259
         TOT                          79.4904     7.9490    30.8119   128.9171

       T/K    H(0)-H(T)+PV         H(T)/Eh          T*S/Eh         G(T)/Eh
   ------------------------------------------------------------------------
    298.15    0.451605E-02    0.338848E-01    0.285037E-01    0.538109E-02
    120.00    0.154619E-02    0.309149E-01    0.969987E-02    0.212150E-01
    100.00    0.127625E-02    0.306450E-01    0.783735E-02    0.228076E-01
     80.00    0.101551E-02    0.303842E-01    0.603734E-02    0.243469E-01
     60.00    0.760229E-03    0.301290E-01    0.430780E-02    0.258211E-01
     40.00    0.506705E-03    0.298754E-01    0.266634E-02    0.272091E-01
     20.00    0.253352E-03    0.296221E-01    0.115761E-02    0.284645E-01
     10.00    0.126676E-03    0.294954E-01    0.491019E-03    0.290044E-01 (used)
   ------------------------------------------------------------------------

         :::::::::::::::::::::::::::::::::::::::::::::::::::::
         ::                  THERMODYNAMIC                  ::
         :::::::::::::::::::::::::::::::::::::::::::::::::::::
         :: total free energy          -9.159455209851 Eh   ::
         ::.................................................::
         :: total energy               -9.188459589164 Eh   ::
         :: zero point energy           0.029368722684 Eh   ::
         :: G(RRHO) w/o ZPVE           -0.000364343372 Eh   ::
         :: G(RRHO) contrib.            0.029004379313 Eh   ::
         :::::::::::::::::::::::::::::::::::::::::::::::::::::

           -------------------------------------------------
          | TOTAL ENERGY               -9.188459589164 Eh   |
          | TOTAL ENTHALPY             -9.158964190464 Eh   |
          | TOTAL FREE ENERGY          -9.159455209851 Eh   |
          | GRADIENT NORM               0.000761100499 Eh/Î± |
          | HOMO-LUMO GAP               2.625482232581 eV   |
           -------------------------------------------------

 * finished run on 2020/05/12 at 11:45:14.240
