   * xtb version 6.2.2 (9d81278992624c895f80dd42a50cac0aa55982e2) compiled by '@Darwin' on 04/03/2020
          program call               : xtb --input C5_12_S_0.input C5_12_S_0.xyz --ohess --molden --namespace C5_12_S_0 output.out
          number of atoms            :                     5
          number of electrons        :                    20
          charge                     :                     0
          spin                       :                   0.0

   ID    Z sym.   atoms
    1    6 C      1-5

          :  Hamiltonian                  GFN2-xTB          :
 * total energy  :   -10.2259126 Eh     change        0.2968452E-09 Eh
 * total energy  :   -10.2425607 Eh     change       -0.1664815E-01 Eh
 * total energy  :   -10.2471515 Eh     change       -0.4590821E-02 Eh
 * total energy  :   -10.2474783 Eh     change       -0.3267719E-03 Eh
 * total energy  :   -10.2475074 Eh     change       -0.2911829E-04 Eh
 * total energy  :   -10.2475104 Eh     change       -0.2991115E-05 Eh
   *** GEOMETRY OPTIMIZATION CONVERGED AFTER 6 ITERATIONS ***

 final structure:
================
5
 xtb: 6.2.2 (9d81278992624c895f80dd42a50cac0aa55982e2)
C         0.92666729914855   -0.14326155005656   -0.56700443771142
C         0.44309072140907   -0.26323374770058    0.79066964670946
C        -0.70422396115213   -0.83120411078333    0.11792139932403
C        -0.22243684941651    0.97446663228247    0.44907904280018
C        -0.44309720998898    0.26323277625801   -0.79066565112226

          :  Hamiltonian                  GFN2-xTB          :
         :: gradient norm              0.000655447256 Eh/a0 ::
         :: HOMO-LUMO gap              2.767515745252 eV    ::
         :: SCC energy               -10.391833094490 Eh    ::
         :: -> dispersion             -0.002391822834 Eh    ::
         :: repulsion energy           0.144322647749 Eh    ::

    * Orbital Energies and Occupations

         #    Occupation            Energy/Eh            Energy/eV
      -------------------------------------------------------------
         1        2.0000           -0.7768903             -21.1403
         2        2.0000           -0.6563085             -17.8591
         3        2.0000           -0.6563074             -17.8590
         4        2.0000           -0.6480813             -17.6352
         5        2.0000           -0.5376552             -14.6303
         6        2.0000           -0.5376534             -14.6303
         7        2.0000           -0.4991515             -13.5826
         8        2.0000           -0.4781216             -13.0104
         9        2.0000           -0.4750135             -12.9258
        10        2.0000           -0.4750134             -12.9258 (HOMO)
        11                         -0.3733091             -10.1583 (LUMO)
        12                         -0.3264909              -8.8843
        13                         -0.3264872              -8.8842
        14                         -0.2966870              -8.0733
        15                          0.0153078               0.4165
        16                          0.0153138               0.4167
        17                          0.1087967               2.9605
        18                          0.1087982               2.9606
        19                          0.1407614               3.8303
        20                          0.5506102              14.9829
      -------------------------------------------------------------
                  HL-Gap            0.1017043 Eh            2.7675 eV

     #   Z        covCN         q      C6AA      Î±(0)
     1   6 C      3.343    -0.054    26.585     8.145
     2   6 C      3.648     0.081    19.550     6.352
     3   6 C      3.343    -0.054    26.585     8.146
     4   6 C      3.343    -0.054    26.585     8.145
     5   6 C      3.648     0.081    19.550     6.352

Wiberg/Mayer (AO) data.
largest (>0.10) Wiberg bond orders for each atom
          total WBO             WBO to atom ...

molecular dipole:
                 x           y           z       tot (Debye)
 q only:       -0.000      -0.000       0.000
   full:       -0.000      -0.000       0.000       0.000

 projected vibrational frequencies (cm-1)
eigval :       -0.00    -0.00     0.00     0.00     0.00     0.00
eigval :      464.89   465.23   663.08   882.66   882.69  1123.54
eigval :     1136.26  1136.43  1397.75

   temp. (K)  partition function   enthalpy   heat capacity  entropy
                                   cal/mol     cal/K/mol   cal/K/mol   J/K/mol
  10.00  VIB   1.00                    0.000      0.000     -0.001
         ROT   22.1                   29.809      2.981      9.136
         INT   22.1                   29.809      2.981      9.135
         TR   0.277E+25               49.681      4.968     21.322
         TOT                          79.4904     7.9490    30.4570   127.4322

       T/K    H(0)-H(T)+PV         H(T)/Eh          T*S/Eh         G(T)/Eh
   ------------------------------------------------------------------------
    298.15    0.459651E-02    0.231693E-01    0.284007E-01   -0.523135E-02
    120.00    0.153752E-02    0.201103E-01    0.962115E-02    0.104892E-01
    100.00    0.127227E-02    0.198451E-01    0.777602E-02    0.120691E-01
     80.00    0.101442E-02    0.195872E-01    0.599081E-02    0.135964E-01
     60.00    0.760117E-03    0.193329E-01    0.427373E-02    0.150592E-01
     40.00    0.506704E-03    0.190795E-01    0.264371E-02    0.164358E-01
     20.00    0.253352E-03    0.188262E-01    0.114629E-02    0.176799E-01
     10.00    0.126676E-03    0.186995E-01    0.485364E-03    0.182141E-01 (used)
   ------------------------------------------------------------------------

         :::::::::::::::::::::::::::::::::::::::::::::::::::::
         ::                  THERMODYNAMIC                  ::
         :::::::::::::::::::::::::::::::::::::::::::::::::::::
         :: total free energy         -10.229296296286 Eh   ::
         ::.................................................::
         :: total energy              -10.247510429472 Eh   ::
         :: zero point energy           0.018572820930 Eh   ::
         :: G(RRHO) w/o ZPVE           -0.000358687744 Eh   ::
         :: G(RRHO) contrib.            0.018214133187 Eh   ::
         :::::::::::::::::::::::::::::::::::::::::::::::::::::

           -------------------------------------------------
          | TOTAL ENERGY              -10.247510429472 Eh   |
          | TOTAL ENTHALPY            -10.228810932526 Eh   |
          | TOTAL FREE ENERGY         -10.229296296286 Eh   |
          | GRADIENT NORM               0.000655451061 Eh/Î± |
          | HOMO-LUMO GAP               2.767515300400 eV   |
           -------------------------------------------------

 * finished run on 2020/05/12 at 11:44:36.669
