 Gaussian 16, Revision B.01,

 ----------------------------------------------------------------
 #P M062X/cc-pvtz nosymm opt(noeigentest) optcyc=120 freq scf=xqc
 ----------------------------------------------------------------

 -----
 Title
 -----
 Symbolic Z-matrix:
 Charge =  0 Multiplicity = 2

 SCF Done:  E(UM062X) =  -359.199665443     A.U. after   31 cycles
 SCF Done:  E(UM062X) =  -359.224138043     A.U. after   29 cycles
 SCF Done:  E(UM062X) =  -359.228407633     A.U. after   25 cycles
 SCF Done:  E(UM062X) =  -359.228989497     A.U. after   25 cycles
 SCF Done:  E(UM062X) =  -359.229036068     A.U. after   20 cycles
 SCF Done:  E(UM062X) =  -359.229031676     A.U. after   24 cycles
 SCF Done:  E(UM062X) =  -359.229043376     A.U. after   19 cycles
 Optimization completed.
    -- Stationary point found.

 1\1\GINC-N1107\FOpt\UM062X\CC-pVTZ\C8N1(2)\SPANTALEONE\12-Oct-2020\0\\
 #P M062X/cc-pvtz nosymm opt(noeigentest) optcyc=120 freq scf=xqc\\Titl
 e\\0,2\C,-0.0001721832,0.0000008155,-0.0061630733\C,-0.0002350334,0.00
 0000306,1.3010845781\C,0.0004566643,-0.0000001012,2.5360963737\C,0.001
 7208187,0.0000000003,3.8736475732\C,0.0037704677,-0.0000000612,5.08838
 34\C,0.0065493532,-0.0000001092,6.4556283123\N,0.0077314671,-0.0000001
 721,7.6081364841\C,0.0005549905,0.0000000398,-1.2736161136\C,0.0019306
 544,-0.000000753,-2.5739101431\\Version=ES64L-G16RevB.01\HF=-359.22904

 Normal termination of Gaussian 16 at Mon Oct 12 17:28:48 2020.

 -------------------------------------------------------------------
 #P Geom=AllCheck Guess=TCheck SCRF=Check GenChk UM062X/CC-pVTZ Freq
 -------------------------------------------------------------------

 Structure from the checkpoint file:  "input.chk"
 -----
 Title
 -----
 Charge =  0 Multiplicity = 2

 SCF Done:  E(UM062X) =  -359.229043376     A.U. after    1 cycles

  Exact polarizability:  43.934   0.000  44.642   0.167   0.000 368.109
 Approx polarizability:  55.479  -0.000  55.088   0.234   0.000 550.299

                      1                      2                      3
                      A                      A                      A
 Frequencies --     48.9548               122.7452               127.2929
 Red. masses --     12.4155                12.2329                12.3575
 Frc consts  --      0.0175                 0.1086                 0.1180
 IR Inten    --      5.6599                 0.3782                 0.0319

                      4                      5                      6
                      A                      A                      A
 Frequencies --    210.4747               217.7282               318.4487
 Red. masses --     12.1471                12.1465                12.1187
 Frc consts  --      0.3170                 0.3393                 0.7241
 IR Inten    --      8.3226                 5.4358                 0.6280

                      7                      8                      9
                      A                      A                      A
 Frequencies --    365.4693               433.4671               437.3714
 Red. masses --     12.0313                12.0469                12.4186
 Frc consts  --      0.9468                 1.3336                 1.3997
 IR Inten    --      0.0153                 1.2228                 1.7964

                     10                     11                     12
                      A                      A                      A
 Frequencies --    467.1097               506.2488               523.0477
 Red. masses --     12.0637                12.0685                12.1403
 Frc consts  --      1.5508                 1.8223                 1.9569
 IR Inten    --      0.3376                 1.5639                 5.7031

                     13                     14                     15
                      A                      A                      A
 Frequencies --    570.5143               607.1431               853.6259
 Red. masses --     12.0504                12.0048                12.3003
 Frc consts  --      2.3109                 2.6073                 5.2808
 IR Inten    --      2.3165                 1.9780                 5.3483

                     16                     17                     18
                      A                      A                      A
 Frequencies --   1233.0165              1595.2591              1841.2691
 Red. masses --     12.1508                12.0207                12.0001
 Frc consts  --     10.8841                18.0237                23.9700
 IR Inten    --     21.8580               292.5180              1114.2933

                     19                     20                     21
                      A                      A                      A
 Frequencies --   2096.7736              2239.6250              2386.9871
 Red. masses --     12.0229                12.1087                12.5221
 Frc consts  --     31.1430                35.7847                42.0366
 IR Inten    --    256.6067               156.5652                97.1569

 - Thermochemistry -
 -------------------
 Temperature   298.150 Kelvin.  Pressure   1.00000 Atm.
 Atom     1 has atomic number  6 and mass  12.00000

 Molecular mass:   110.00307 amu.
 Principal axes and moments of inertia in atomic units:
                           1         2         3
     Eigenvalues --     0.001124378.877394378.87851
           X            0.00068   1.00000   0.00014
           Y           -0.00000  -0.00014   1.00000
           Z            1.00000  -0.00068  -0.00000
 This molecule is an asymmetric top.
 Rotational symmetry number  1.
 Rotational temperatures (Kelvin)  77124.58177     0.01978     0.01978
 Rotational constants (GHZ):      ************     0.41215     0.41215
 Zero-point vibrational energy     102894.2 (Joules/Mol)
                                   24.59231 (Kcal/Mol)
 Warning -- explicit consideration of  14 degrees of freedom as
           vibrations may cause significant error
 Vibrational temperatures:     70.43   176.60   183.15   302.83   313.26
          (Kelvin)            458.18   525.83   623.66   629.28   672.07
                              728.38   752.55   820.84   873.54  1228.18
                             1774.04  2295.22  2649.18  3016.79  3222.32
                             3434.34

 Zero-point correction=                           0.039190 (Hartree/Particle)
 Thermal correction to Energy=                    0.047702
 Thermal correction to Enthalpy=                  0.048647
 Thermal correction to Gibbs Free Energy=         0.010036
 Sum of electronic and zero-point Energies=           -359.189853
 Sum of electronic and thermal Energies=              -359.181341
 Sum of electronic and thermal Enthalpies=            -359.180397
 Sum of electronic and thermal Free Energies=         -359.219007

                     E (Thermal)             CV                S
                      KCal/Mol        Cal/Mol-Kelvin    Cal/Mol-Kelvin
 Total                   29.934             28.113             81.263
 Electronic               0.000              0.000              1.377
 Translational            0.889              2.981             40.002
 Rotational               0.889              2.981             17.716
 Vibrational             28.156             22.152             22.167
 Vibration     1          0.595              1.978              4.859
 Vibration     2          0.610              1.930              3.057
 Vibration     3          0.611              1.926              2.987
 Vibration     4          0.643              1.825              2.040
 Vibration     5          0.646              1.814              1.978
 Vibration     6          0.705              1.638              1.318
 Vibration     7          0.739              1.543              1.099
 Vibration     8          0.794              1.397              0.847
 Vibration     9          0.798              1.389              0.835
 Vibration    10          0.824              1.323              0.746
 Vibration    11          0.861              1.236              0.643
 Vibration    12          0.878              1.199              0.603
 Vibration    13          0.927              1.095              0.503
 Vibration    14          0.966              1.017              0.438

 Optimization completed.
    -- Stationary point found.

 1\1\GINC-N1107\Freq\UM062X\CC-pVTZ\C8N1(2)\SPANTALEONE\12-Oct-2020\0\\
 #P Geom=AllCheck Guess=TCheck SCRF=Check GenChk UM062X/CC-pVTZ Freq\\T
 itle\\0,2\C,-0.0001721832,0.0000008155,-0.0061630733\C,-0.0002350334,0
 .000000306,1.3010845781\C,0.0004566643,-0.0000001012,2.5360963737\C,0.
 0017208187,0.0000000003,3.8736475732\C,0.0037704677,-0.0000000612,5.08
 83834\C,0.0065493532,-0.0000001092,6.4556283123\N,0.0077314671,-0.0000
 001721,7.6081364841\C,0.0005549905,0.0000000398,-1.2736161136\C,0.0019
 306544,-0.000000753,-2.5739101431\\Version=ES64L-G16RevB.01\HF=-359.22

 Normal termination of Gaussian 16 at Mon Oct 12 17:31:47 2020.
 Gaussian 16:  ES64L-G16RevB.01 20-Dec-2017

 -------------------------------------------------
 #P ROCCSD(T)/aug-cc-pvtz geom=allcheck guess=read
 -------------------------------------------------

 Structure from the checkpoint file:  "input.chk"
 -----
 Title
 -----
 Charge =  0 Multiplicity = 2

                         Standard orientation:
 ---------------------------------------------------------------------
 Center     Atomic      Atomic             Coordinates (Angstroms)
 Number     Number       Type             X           Y           Z
 ---------------------------------------------------------------------
      1          6           0        2.654598   -0.000942   -0.000001
      2          6           0        1.347351   -0.001893   -0.000000
      3          6           0        0.112339   -0.002041    0.000000
      4          6           0       -1.225213   -0.001686    0.000000
      5          6           0       -2.439950   -0.000462    0.000000
      6          6           0       -3.807196    0.001388   -0.000000
      7          7           0       -4.959705    0.001787   -0.000000
      8          6           0        3.922050    0.000646   -0.000000
      9          6           0        5.222343    0.002906    0.000000
 ---------------------------------------------------------------------

 SCF Done:  E(ROHF) =  -357.162172136     A.U. after   27 cycles
 E2 =    -0.1347851629D+01 EUMP2 =    -0.35851002376474D+03
 CCSD(T)
 CCSD(T)= -0.35860098291D+03

 The electronic state is 2-A.
 Alpha  occ. eigenvalues --  -15.62633 -11.35331 -11.34366 -11.34037 -11.33663
 Alpha  occ. eigenvalues --  -11.33447 -11.33104 -11.32879 -11.29387  -1.27016
 Alpha  occ. eigenvalues --   -1.18316  -1.14789  -1.10016  -1.02272  -0.95031
 Alpha  occ. eigenvalues --   -0.88542  -0.83514  -0.60859  -0.60847  -0.58856
 Alpha  occ. eigenvalues --   -0.57553  -0.55015  -0.51885  -0.50609  -0.48453
 Alpha  occ. eigenvalues --   -0.44013  -0.40311  -0.33187
 Alpha virt. eigenvalues --   -0.06063   0.02443   0.03730   0.04313   0.05349
 Alpha virt. eigenvalues --    0.06191   0.06256   0.06271   0.07711   0.07865
 Alpha virt. eigenvalues --    0.07933   0.09526   0.09568   0.10336   0.12029

 Mulliken charges and spin densities:
               1          2
     1  C    0.609341   0.169836
     2  C   -0.003051   0.014092
     3  C    0.397887   0.063098
     4  C   -0.529118  -0.003493
     5  C    1.490094   0.015710
     6  C   -0.730525   0.001940
     7  N   -0.468201   0.003618
     8  C    0.047511   0.081982
     9  C   -0.813937   0.653216
 Sum of Mulliken charges =  -0.00000   1.00000

 Dipole moment (field-independent basis, Debye):
    X=              0.1031    Y=             -0.0053    Z=             -0.0000  Tot=              0.1032
 Quadrupole moment (field-independent basis, Debye-Ang):
   XX=            -88.8089   YY=            -49.2534   ZZ=            -50.8295
   XY=             -0.0126   XZ=             -0.0000   YZ=             -0.0002

 Normal termination of Gaussian 16 at Tue Oct 13 06:39:30 2020.
