 Gaussian 16, Revision B.01,
 Gaussian 16:  ES64L-G16RevB.01 20-Dec-2017

 ----------------------
 #P CCSD(T)/aug-cc-pvtz
 ----------------------

 -----
 Title
 -----
 Symbolic Z-matrix:
 Charge =  1 Multiplicity = 2

                         Standard orientation:
 ---------------------------------------------------------------------
 Center     Atomic      Atomic             Coordinates (Angstroms)
 Number     Number       Type             X           Y           Z
 ---------------------------------------------------------------------
      1          2           0        0.000000    0.000000    0.000000
 ---------------------------------------------------------------------

 SCF Done:  E(UHF) =  -1.99892110390     A.U. after    7 cycles
 E2 =     0.0000000000D+00 EUMP2 =    -0.19989211038974D+01
 CCSD(T)
 CCSD(T)= -0.19989211039D+01

 The electronic state is 2-A1G.
 Alpha  occ. eigenvalues --   -1.99892
 Alpha virt. eigenvalues --   -0.16996  -0.01075  -0.01075  -0.01075   0.31281
 Alpha virt. eigenvalues --    0.99360   0.99360   0.99360   0.99360   0.99360
 Alpha virt. eigenvalues --    1.25072   1.25072   1.25072   3.80709   6.21757

 Mulliken charges and spin densities:
               1          2
     1  He   1.000000   1.000000
 Sum of Mulliken charges =   1.00000   1.00000

 Dipole moment (field-independent basis, Debye):
    X=              0.0000    Y=              0.0000    Z=              0.0000  Tot=              0.0000
 Quadrupole moment (field-independent basis, Debye-Ang):
   XX=             -0.3378   YY=             -0.3378   ZZ=             -0.3378
   XY=              0.0000   XZ=              0.0000   YZ=             -0.0000

 211\MP4DQ=-1.9989211\MP4SDQ=-1.9989211\CCSD=-1.9989211\CCSD(T)=-1.9989
 Normal termination of Gaussian 16 at Mon Oct  5 21:35:35 2020.
