   * xtb version 6.2.2 (9d81278992624c895f80dd42a50cac0aa55982e2) compiled by '@Darwin' on 04/03/2020
          program call               : xtb --input H2C2N1_4_S_3.input H2C2N1_4_S_3.xyz --ohess --molden --namespace H2C2N1_4_S_3 output.out
          number of atoms            :                     5
          number of electrons        :                    15
          charge                     :                     0
          spin                       :                   1.5

   ID    Z sym.   atoms
    1    6 C      1, 3
    2    7 N      2
    3    1 H      4, 5

          :  Hamiltonian                  GFN2-xTB          :
 * total energy  :    -7.8554440 Eh     change       -0.1874048E-09 Eh
 * total energy  :    -7.8888714 Eh     change       -0.3342738E-01 Eh
 * total energy  :    -7.9023641 Eh     change       -0.1349270E-01 Eh
 * total energy  :    -7.9069139 Eh     change       -0.4549883E-02 Eh
 * total energy  :    -7.9115212 Eh     change       -0.4607238E-02 Eh
 * total energy  :    -7.9122769 Eh     change       -0.7556775E-03 Eh
 * total energy  :    -7.9106924 Eh     change        0.1584508E-02 Eh
 * total energy  :    -7.9127464 Eh     change       -0.2054052E-02 Eh
 * total energy  :    -7.9127741 Eh     change       -0.2771195E-04 Eh
 * total energy  :    -7.9127859 Eh     change       -0.1175045E-04 Eh
 * total energy  :    -7.9127883 Eh     change       -0.2445268E-05 Eh
   *** GEOMETRY OPTIMIZATION CONVERGED AFTER 11 ITERATIONS ***

 final structure:
================
5
 xtb: 6.2.2 (9d81278992624c895f80dd42a50cac0aa55982e2)
C        -0.07606447253908    0.66909448963141   -0.04096677924540
N        -1.27325480295596    0.26856670170375   -0.03837081561812
C         0.99155178253022   -0.18913308328533    0.03051021318704
H        -1.69314329294268   -0.65889407275499    0.01286238586722
H         2.05091078590750   -0.08963403529485    0.03596499580926

          :  Hamiltonian                  GFN2-xTB          :
         :: gradient norm              0.001025048048 Eh/a0 ::
         :: HOMO-LUMO gap              2.802953035956 eV    ::
         :: SCC energy                -8.032914612080 Eh    ::
         :: -> dispersion             -0.001496477150 Eh    ::
         :: repulsion energy           0.120126331467 Eh    ::

    * Orbital Energies and Occupations

         #    Occupation            Energy/Eh            Energy/eV
      -------------------------------------------------------------
         1        2.0000           -0.6434445             -17.5090
         2        2.0000           -0.5967764             -16.2391
         3        2.0000           -0.5572711             -15.1641
         4        2.0000           -0.5124714             -13.9451
         5        2.0000           -0.4813184             -13.0973
         6        2.0000           -0.4522638             -12.3067
         7        1.0000           -0.3885172             -10.5721
         8        1.0000           -0.3650327              -9.9330
         9        1.0000           -0.2812509              -7.6532 (HOMO)
        10                         -0.1782442              -4.8503 (LUMO)
        11                          0.0954704               2.5979
        12                          0.1608445               4.3768
        13                          0.4990429              13.5796
        14                          0.6015894              16.3701
      -------------------------------------------------------------
Molecule has the following symmetry elements: (sigma)
It seems to be the Cs point group
                  HL-Gap            0.1030067 Eh            2.8030 eV

     #   Z        covCN         q      C6AA      Î±(0)
     1   6 C      1.891     0.005    31.001     8.992
     2   7 N      1.791    -0.168    25.421     7.468
     3   6 C      1.929    -0.091    33.593     9.360
     4   1 H      0.860     0.167     1.289     1.778
     5   1 H      0.927     0.087     1.907     2.160

Wiberg/Mayer (AO) data.
largest (>0.10) Wiberg bond orders for each atom
          total WBO             WBO to atom ...

molecular dipole:
                 x           y           z       tot (Debye)
 q only:        0.035      -0.270       0.017
   full:        0.101      -0.518       0.033       1.345

 projected vibrational frequencies (cm-1)
eigval :       -0.00    -0.00    -0.00     0.00     0.00     0.00
eigval :      372.09   538.51   590.44   638.00   850.19  1361.17
eigval :     1577.49  3126.22  3173.46

   temp. (K)  partition function   enthalpy   heat capacity  entropy
                                   cal/mol     cal/K/mol   cal/K/mol   J/K/mol
  10.00  VIB   1.00                    0.000      0.000     -0.001
         ROT   43.9                   29.809      2.981     10.496
         INT   43.9                   29.809      2.981     10.495
         TR   0.151E+25               49.681      4.968     20.115
         TOT                          79.4904     7.9490    30.6094   128.0698

       T/K    H(0)-H(T)+PV         H(T)/Eh          T*S/Eh         G(T)/Eh
   ------------------------------------------------------------------------
    298.15    0.469441E-02    0.325509E-01    0.286429E-01    0.390803E-02
    120.00    0.154758E-02    0.294041E-01    0.966291E-02    0.197412E-01
    100.00    0.127675E-02    0.291333E-01    0.780576E-02    0.213275E-01
     80.00    0.101576E-02    0.288723E-01    0.601184E-02    0.228605E-01
     60.00    0.760291E-03    0.286168E-01    0.428852E-02    0.243283E-01
     40.00    0.506707E-03    0.283632E-01    0.265344E-02    0.257098E-01
     20.00    0.253352E-03    0.281099E-01    0.115115E-02    0.269587E-01
     10.00    0.126676E-03    0.279832E-01    0.487792E-03    0.274954E-01 (used)
   ------------------------------------------------------------------------

         :::::::::::::::::::::::::::::::::::::::::::::::::::::
         ::                  THERMODYNAMIC                  ::
         :::::::::::::::::::::::::::::::::::::::::::::::::::::
         :: total free energy          -7.885292896840 Eh   ::
         ::.................................................::
         :: total energy               -7.912788311548 Eh   ::
         :: zero point energy           0.027856530643 Eh   ::
         :: G(RRHO) w/o ZPVE           -0.000361115935 Eh   ::
         :: G(RRHO) contrib.            0.027495414708 Eh   ::
         :::::::::::::::::::::::::::::::::::::::::::::::::::::

           -------------------------------------------------
          | TOTAL ENERGY               -7.912788311548 Eh   |
          | TOTAL ENTHALPY             -7.884805104889 Eh   |
          | TOTAL FREE ENERGY          -7.885292896840 Eh   |
          | GRADIENT NORM               0.001025016213 Eh/Î± |
          | HOMO-LUMO GAP               2.802953811454 eV   |
           -------------------------------------------------

 * finished run on 2020/05/12 at 11:44:46.374
