   * xtb version 6.2.2 (9d81278992624c895f80dd42a50cac0aa55982e2) compiled by '@Darwin' on 04/03/2020
          program call               : xtb --input C2N1_1_S_3.input C2N1_1_S_3.xyz --ohess --molden --namespace C2N1_1_S_3 output.out
          number of atoms            :                     3
          number of electrons        :                    13
          charge                     :                     0
          spin                       :                   1.5

   ID    Z sym.   atoms
    1    7 N      1
    2    6 C      2, 3

          :  Hamiltonian                  GFN2-xTB          :
 * total energy  :    -6.7188038 Eh     change       -0.1698464E-10 Eh
 * total energy  :    -6.7683721 Eh     change       -0.4956825E-01 Eh
 * total energy  :    -6.7751722 Eh     change       -0.6800102E-02 Eh
 * total energy  :    -6.7826602 Eh     change       -0.7487979E-02 Eh
 * total energy  :    -6.7825828 Eh     change        0.7739794E-04 Eh
 * total energy  :    -6.7828461 Eh     change       -0.2633724E-03 Eh
 * total energy  :    -6.7828491 Eh     change       -0.2916692E-05 Eh
   *** GEOMETRY OPTIMIZATION CONVERGED AFTER 7 ITERATIONS ***

 final structure:
================
3
 xtb: 6.2.2 (9d81278992624c895f80dd42a50cac0aa55982e2)
N        -0.00199313779502    0.63892871748582   -0.00000000000000
C         0.86845206873015   -0.31675619344270    0.00000000000000
C        -0.86645793093513   -0.32217152404312    0.00000000000000

          :  Hamiltonian                  GFN2-xTB          :
         :: gradient norm              0.000341997150 Eh/a0 ::
         :: HOMO-LUMO gap              1.752705820977 eV    ::
         :: SCC energy                -6.858047728511 Eh    ::
         :: -> dispersion             -0.000898387283 Eh    ::
         :: repulsion energy           0.075198668915 Eh    ::

    * Orbital Energies and Occupations

         #    Occupation            Energy/Eh            Energy/eV
      -------------------------------------------------------------
         1        2.0000           -0.7310956             -19.8941
         2        2.0000           -0.6263949             -17.0451
         3        2.0000           -0.5826006             -15.8534
         4        2.0000           -0.5643934             -15.3579
         5        1.8732           -0.4651394             -12.6571
         6        1.1268           -0.4614728             -12.5573
         7        1.0000           -0.4022972             -10.9471
         8        1.0000           -0.3505369              -9.5386 (HOMO)
         9                         -0.2861261              -7.7859 (LUMO)
        10                         -0.2120492              -5.7702
        11                          0.2658293               7.2336
        12                          0.3851812              10.4813
      -------------------------------------------------------------
                  HL-Gap            0.0644108 Eh            1.7527 eV

     #   Z        covCN         q      C6AA      Î±(0)
     1   7 N      1.821     0.038    21.251     6.831
     2   6 C      1.813    -0.019    31.688     9.096
     3   6 C      1.813    -0.019    31.688     9.096

Wiberg/Mayer (AO) data.
largest (>0.10) Wiberg bond orders for each atom
          total WBO             WBO to atom ...

molecular dipole:
                 x           y           z       tot (Debye)
 q only:       -0.000       0.068      -0.000
   full:       -0.001       0.232      -0.000       0.589

 projected vibrational frequencies (cm-1)
eigval :       -0.00    -0.00    -0.00     0.00     0.00     0.00
eigval :      619.11   935.46  1662.53

   temp. (K)  partition function   enthalpy   heat capacity  entropy
                                   cal/mol     cal/K/mol   cal/K/mol   J/K/mol
  10.00  VIB   1.00                    0.000      0.000     -0.000
         ROT   14.6                   29.809      2.981      8.303
         INT   14.6                   29.809      2.981      8.303
         TR   0.139E+25               49.681      4.968     19.961
         TOT                          79.4904     7.9490    28.2633   118.2537

       T/K    H(0)-H(T)+PV         H(T)/Eh          T*S/Eh         G(T)/Eh
   ------------------------------------------------------------------------
    298.15    0.397627E-02    0.113054E-01    0.265064E-01   -0.152010E-01
    120.00    0.152186E-02    0.885096E-02    0.918304E-02   -0.332077E-03
    100.00    0.126715E-02    0.859625E-02    0.742043E-02    0.117583E-02
     80.00    0.101345E-02    0.834255E-02    0.570997E-02    0.263258E-02
     60.00    0.760057E-03    0.808916E-02    0.406386E-02    0.402530E-02
     40.00    0.506704E-03    0.783581E-02    0.250385E-02    0.533196E-02
     20.00    0.253352E-03    0.758246E-02    0.107637E-02    0.650609E-02
     10.00    0.126676E-03    0.745578E-02    0.450404E-03    0.700538E-02 (used)
   ------------------------------------------------------------------------

         :::::::::::::::::::::::::::::::::::::::::::::::::::::
         ::                  THERMODYNAMIC                  ::
         :::::::::::::::::::::::::::::::::::::::::::::::::::::
         :: total free energy          -6.775843683422 Eh   ::
         ::.................................................::
         :: total energy               -6.782849058786 Eh   ::
         :: zero point energy           0.007329103753 Eh   ::
         :: G(RRHO) w/o ZPVE           -0.000323728389 Eh   ::
         :: G(RRHO) contrib.            0.007005375364 Eh   ::
         :::::::::::::::::::::::::::::::::::::::::::::::::::::

           -------------------------------------------------
          | TOTAL ENERGY               -6.782849058786 Eh   |
          | TOTAL ENTHALPY             -6.775393279018 Eh   |
          | TOTAL FREE ENERGY          -6.775843683422 Eh   |
          | GRADIENT NORM               0.000341916760 Eh/Î± |
          | HOMO-LUMO GAP               1.752707390994 eV   |
           -------------------------------------------------

 * finished run on 2020/05/12 at 11:43:53.987
