   * xtb version 6.2.2 (9d81278992624c895f80dd42a50cac0aa55982e2) compiled by '@Darwin' on 04/03/2020
          program call               : xtb --input H1C3N1_21_S_0.input H1C3N1_21_S_0.xyz --ohess --molden --namespace H1C3N1_21_S_0 output.out
          number of atoms            :                     5
          number of electrons        :                    18
          charge                     :                     0
          spin                       :                   0.0

   ID    Z sym.   atoms
    1    7 N      1
    2    6 C      2-4
    3    1 H      5

          :  Hamiltonian                  GFN2-xTB          :
 * total energy  :    -9.3878324 Eh     change        0.1009202E-09 Eh
 * total energy  :    -9.4456061 Eh     change       -0.5777372E-01 Eh
 * total energy  :    -9.4834808 Eh     change       -0.3787474E-01 Eh
 * total energy  :    -9.5003366 Eh     change       -0.1685575E-01 Eh
 * total energy  :    -9.5047108 Eh     change       -0.4374253E-02 Eh
 * total energy  :    -9.5055240 Eh     change       -0.8131836E-03 Eh
 * total energy  :    -9.5110094 Eh     change       -0.5485395E-02 Eh
 * total energy  :    -9.5639026 Eh     change       -0.5289317E-01 Eh
 * total energy  :    -9.5583739 Eh     change        0.5528627E-02 Eh
 * total energy  :    -9.5629612 Eh     change       -0.4587234E-02 Eh
 * total energy  :    -9.5822854 Eh     change       -0.1932428E-01 Eh
 * total energy  :    -9.5843387 Eh     change       -0.2053246E-02 Eh
 * total energy  :    -9.5846366 Eh     change       -0.2979483E-03 Eh
 * total energy  :    -9.5847781 Eh     change       -0.1414883E-03 Eh
 * total energy  :    -9.5848340 Eh     change       -0.5587474E-04 Eh
 * total energy  :    -9.5848478 Eh     change       -0.1381862E-04 Eh
 * total energy  :    -9.5848581 Eh     change       -0.1031332E-04 Eh
 * total energy  :    -9.5848611 Eh     change       -0.2917716E-05 Eh
   *** GEOMETRY OPTIMIZATION CONVERGED AFTER 18 ITERATIONS ***

 final structure:
================
5
 xtb: 6.2.2 (9d81278992624c895f80dd42a50cac0aa55982e2)
N         0.54967894392840   -0.85054423845559   -0.22430176754977
C         0.27802521856082    0.42773474041751    0.19246165847805
C        -0.90259503826853   -0.13629226317187    0.63604868901546
C        -0.72379778755271   -0.78445334177422   -0.64020137728089
H         0.79868866333201    1.34355410298417    0.03599279733714

          :  Hamiltonian                  GFN2-xTB          :
         :: gradient norm              0.000486916080 Eh/a0 ::
         :: HOMO-LUMO gap              3.166975894803 eV    ::
         :: SCC energy                -9.712994165806 Eh    ::
         :: -> dispersion             -0.001955663649 Eh    ::
         :: repulsion energy           0.128133083623 Eh    ::

    * Orbital Energies and Occupations

         #    Occupation            Energy/Eh            Energy/eV
      -------------------------------------------------------------
         1        2.0000           -0.7491741             -20.3861
         2        2.0000           -0.6417211             -17.4621
         3        2.0000           -0.6347816             -17.2733
         4        2.0000           -0.5914234             -16.0934
         5        2.0000           -0.5429641             -14.7748
         6        2.0000           -0.5242085             -14.2644
         7        2.0000           -0.4848422             -13.1932
         8        2.0000           -0.4385792             -11.9343
         9        2.0000           -0.4317315             -11.7480 (HOMO)
        10                         -0.3153472              -8.5810 (LUMO)
        11                         -0.2812520              -7.6533
        12                         -0.2770771              -7.5397
        13                          0.0579434               1.5767
        14                          0.0763713               2.0782
        15                          0.1241515               3.3783
        16                          0.2679320               7.2908
        17                          0.5982187              16.2784
      -------------------------------------------------------------
                  HL-Gap            0.1163843 Eh            3.1670 eV

     #   Z        covCN         q      C6AA      Î±(0)
     1   7 N      2.487    -0.117    23.602     7.215
     2   6 C      3.679     0.123    18.774     6.206
     3   6 C      2.626    -0.067    29.652     8.907
     4   6 C      2.752    -0.017    28.417     8.729
     5   1 H      0.927     0.078     2.002     2.213

Wiberg/Mayer (AO) data.
largest (>0.10) Wiberg bond orders for each atom
          total WBO             WBO to atom ...

molecular dipole:
                 x           y           z       tot (Debye)
 q only:        0.198       0.527       0.040
   full:        0.586       0.954      -0.019       2.846

 projected vibrational frequencies (cm-1)
eigval :       -0.00    -0.00    -0.00     0.00     0.00     0.00
eigval :      587.44   635.04   762.21   813.30   954.06  1181.75
eigval :     1335.81  1505.79  3216.02

   temp. (K)  partition function   enthalpy   heat capacity  entropy
                                   cal/mol     cal/K/mol   cal/K/mol   J/K/mol
  10.00  VIB   1.00                    0.000      0.000     -0.000
         ROT   81.3                   29.809      2.981     11.720
         INT   81.3                   29.809      2.981     11.720
         TR   0.217E+25               49.681      4.968     20.838
         TOT                          79.4904     7.9490    32.5577   136.2214

       T/K    H(0)-H(T)+PV         H(T)/Eh          T*S/Eh         G(T)/Eh
   ------------------------------------------------------------------------
    298.15    0.432668E-02    0.293670E-01    0.289979E-01    0.369109E-03
    120.00    0.152452E-02    0.265648E-01    0.100073E-01    0.165575E-01
    100.00    0.126774E-02    0.263080E-01    0.810547E-02    0.182026E-01
     80.00    0.101351E-02    0.260538E-01    0.625755E-02    0.197963E-01
     60.00    0.760059E-03    0.258003E-01    0.447449E-02    0.213259E-01
     40.00    0.506704E-03    0.255470E-01    0.277760E-02    0.227694E-01
     20.00    0.253352E-03    0.252936E-01    0.121324E-02    0.240804E-01
     10.00    0.126676E-03    0.251670E-01    0.518840E-03    0.246481E-01 (used)
   ------------------------------------------------------------------------

         :::::::::::::::::::::::::::::::::::::::::::::::::::::
         ::                  THERMODYNAMIC                  ::
         :::::::::::::::::::::::::::::::::::::::::::::::::::::
         :: total free energy          -9.560212931629 Eh   ::
         ::.................................................::
         :: total energy               -9.584861056682 Eh   ::
         :: zero point energy           0.025040288859 Eh   ::
         :: G(RRHO) w/o ZPVE           -0.000392163806 Eh   ::
         :: G(RRHO) contrib.            0.024648125053 Eh   ::
         :::::::::::::::::::::::::::::::::::::::::::::::::::::

           -------------------------------------------------
          | TOTAL ENERGY               -9.584861056682 Eh   |
          | TOTAL ENTHALPY             -9.559694091807 Eh   |
          | TOTAL FREE ENERGY          -9.560212931629 Eh   |
          | GRADIENT NORM               0.000486823858 Eh/Î± |
          | HOMO-LUMO GAP               3.166977216564 eV   |
           -------------------------------------------------

 * finished run on 2020/05/12 at 11:44:58.695
