   * xtb version 6.2.2 (9d81278992624c895f80dd42a50cac0aa55982e2) compiled by '@Darwin' on 04/03/2020
          program call               : xtb --input H1C1O1_0_S_3.input H1C1O1_0_S_3.xyz --ohess --molden --namespace H1C1O1_0_S_3 output.out
          number of atoms            :                     3
          number of electrons        :                    11
          charge                     :                     0
          spin                       :                   1.5

   ID    Z sym.   atoms
    1    8 O      1
    2    6 C      2
    3    1 H      3

          :  Hamiltonian                  GFN2-xTB          :
 * total energy  :    -6.3657552 Eh     change        0.3406608E-10 Eh
 * total energy  :    -6.3681968 Eh     change       -0.2441576E-02 Eh
 * total energy  :    -6.3688647 Eh     change       -0.6678820E-03 Eh
 * total energy  :    -6.3688970 Eh     change       -0.3239116E-04 Eh
 * total energy  :    -6.3688986 Eh     change       -0.1552844E-05 Eh
   *** GEOMETRY OPTIMIZATION CONVERGED AFTER 5 ITERATIONS ***

 final structure:
================
3
 xtb: 6.2.2 (9d81278992624c895f80dd42a50cac0aa55982e2)
O        -0.17303687042408    0.40457240381940    0.00000000000000
C         1.05387668867491   -0.13975655470249   -0.00000000000000
H        -0.88083981825082   -0.26481584911691    0.00000000000000

          :  Hamiltonian                  GFN2-xTB          :
         :: gradient norm              0.000521713117 Eh/a0 ::
         :: HOMO-LUMO gap              9.702717392514 eV    ::
         :: SCC energy                -6.396153212512 Eh    ::
         :: -> dispersion             -0.000410974166 Eh    ::
         :: repulsion energy           0.027254611295 Eh    ::

    * Orbital Energies and Occupations

         #    Occupation            Energy/Eh            Energy/eV
      -------------------------------------------------------------
         1        2.0000           -0.7242007             -19.7065
         2        2.0000           -0.6325523             -17.2126
         3        2.0000           -0.5696601             -15.5012
         4        2.0000           -0.5270630             -14.3421
         5        1.0000           -0.4244305             -11.5493
         6        1.0000           -0.3068137              -8.3488
         7        1.0000           -0.2820101              -7.6739 (HOMO)
         8                          0.0745582               2.0288 (LUMO)
         9                          0.2486536               6.7662
      -------------------------------------------------------------
                  HL-Gap            0.3565683 Eh            9.7027 eV

     #   Z        covCN         q      C6AA      Î±(0)
     1   8 O      1.658    -0.293    18.881     5.866
     2   6 C      0.854    -0.026    35.826     9.987
     3   1 H      0.804     0.319     0.668     1.284

Wiberg/Mayer (AO) data.
largest (>0.10) Wiberg bond orders for each atom
          total WBO             WBO to atom ...

molecular dipole:
                 x           y           z       tot (Debye)
 q only:       -0.486      -0.376       0.000
   full:       -0.474      -0.542       0.000       1.830

 projected vibrational frequencies (cm-1)
eigval :       -0.00    -0.00    -0.00    -0.00     0.00     0.00
eigval :     1126.77  1350.29  3253.91

   temp. (K)  partition function   enthalpy   heat capacity  entropy
                                   cal/mol     cal/K/mol   cal/K/mol   J/K/mol
  10.00  VIB   1.00                    0.000      0.000     -0.000
         ROT   5.48                   29.809      2.981      6.361
         INT   5.48                   29.809      2.981      6.361
         TR   0.929E+24               49.681      4.968     19.155
         TOT                          79.4904     7.9490    25.5157   106.7577

       T/K    H(0)-H(T)+PV         H(T)/Eh          T*S/Eh         G(T)/Eh
   ------------------------------------------------------------------------
    298.15    0.380840E-02    0.168645E-01    0.249789E-01   -0.811443E-02
    120.00    0.152012E-02    0.145762E-01    0.865562E-02    0.592060E-02
    100.00    0.126676E-02    0.143229E-01    0.698212E-02    0.734074E-02
     80.00    0.101341E-02    0.140695E-01    0.535963E-02    0.870988E-02
     60.00    0.760056E-03    0.138162E-01    0.380113E-02    0.100150E-01
     40.00    0.506704E-03    0.135628E-01    0.232870E-02    0.112341E-01
     20.00    0.253352E-03    0.133095E-01    0.988794E-03    0.123207E-01
     10.00    0.126676E-03    0.131828E-01    0.406619E-03    0.127762E-01 (used)
   ------------------------------------------------------------------------

         :::::::::::::::::::::::::::::::::::::::::::::::::::::
         ::                  THERMODYNAMIC                  ::
         :::::::::::::::::::::::::::::::::::::::::::::::::::::
         :: total free energy          -6.356122444879 Eh   ::
         ::.................................................::
         :: total energy               -6.368898601153 Eh   ::
         :: zero point energy           0.013056098890 Eh   ::
         :: G(RRHO) w/o ZPVE           -0.000279942616 Eh   ::
         :: G(RRHO) contrib.            0.012776156274 Eh   ::
         :::::::::::::::::::::::::::::::::::::::::::::::::::::

           -------------------------------------------------
          | TOTAL ENERGY               -6.368898601153 Eh   |
          | TOTAL ENTHALPY             -6.355715826248 Eh   |
          | TOTAL FREE ENERGY          -6.356122444879 Eh   |
          | GRADIENT NORM               0.000521705145 Eh/Î± |
          | HOMO-LUMO GAP               9.702716772505 eV   |
           -------------------------------------------------

 * finished run on 2020/05/12 at 11:44:24.649
