   * xtb version 6.2.2 (9d81278992624c895f80dd42a50cac0aa55982e2) compiled by '@Darwin' on 04/03/2020
          program call               : xtb --input C4N1_1_S_3.input C4N1_1_S_3.xyz --ohess --molden --namespace C4N1_1_S_3 output.out
          number of atoms            :                     5
          number of electrons        :                    21
          charge                     :                     0
          spin                       :                   1.5

   ID    Z sym.   atoms
    1    6 C      1, 3-5
    2    7 N      2

          :  Hamiltonian                  GFN2-xTB          :
 * total energy  :   -10.6737991 Eh     change       -0.4851888E-09 Eh
 * total energy  :   -10.6840363 Eh     change       -0.1023720E-01 Eh
 * total energy  :   -10.6860529 Eh     change       -0.2016607E-02 Eh
 * total energy  :   -10.6861696 Eh     change       -0.1167601E-03 Eh
 * total energy  :   -10.6861749 Eh     change       -0.5258711E-05 Eh
 * total energy  :   -10.6864461 Eh     change       -0.2711861E-03 Eh
 * total energy  :   -10.6956806 Eh     change       -0.9234549E-02 Eh
 * total energy  :   -10.7284982 Eh     change       -0.3281757E-01 Eh
 * total energy  :   -10.7712319 Eh     change       -0.4273374E-01 Eh
 * total energy  :   -10.8255707 Eh     change       -0.5433875E-01 Eh
 * total energy  :   -11.0957956 Eh     change       -0.9185458E-04 Eh
 * total energy  :   -11.0958435 Eh     change       -0.4794131E-04 Eh
 * total energy  :   -11.0958636 Eh     change       -0.2006090E-04 Eh
 * total energy  :   -11.0958872 Eh     change       -0.2360885E-04 Eh
 * total energy  :   -11.0959173 Eh     change       -0.3013721E-04 Eh
 * total energy  :   -11.0959551 Eh     change       -0.3783098E-04 Eh
 * total energy  :   -11.0960024 Eh     change       -0.4725081E-04 Eh
 * total energy  :   -11.0960325 Eh     change       -0.3016159E-04 Eh
 * total energy  :   -11.0960369 Eh     change       -0.4374094E-05 Eh
   *** GEOMETRY OPTIMIZATION CONVERGED AFTER 58 ITERATIONS ***

 final structure:
================
5
 xtb: 6.2.2 (9d81278992624c895f80dd42a50cac0aa55982e2)
C        -0.03452561730020    0.00244875871479    0.00193173267155
N        -1.05555144794771   -0.32082586977728    0.62972033015679
C         2.08123752512024    0.63183023860565   -1.24024054108036
C        -2.04311822344303   -0.63261451329220    1.23341858297471
C         1.05195876357069    0.31916238574905   -0.62483010472269

          :  Hamiltonian                  GFN2-xTB          :
         :: gradient norm              0.000662910937 Eh/a0 ::
         :: HOMO-LUMO gap              3.452877516128 eV    ::
         :: SCC energy               -11.367477385624 Eh    ::
         :: -> dispersion             -0.002675126138 Eh    ::
         :: repulsion energy           0.271441583359 Eh    ::

    * Orbital Energies and Occupations

         #    Occupation            Energy/Eh            Energy/eV
      -------------------------------------------------------------
         1        2.0000           -0.6972140             -18.9722
         2        2.0000           -0.6703502             -18.2412
         3        2.0000           -0.6524845             -17.7550
         4        2.0000           -0.6042385             -16.4422
         5        2.0000           -0.5576616             -15.1747
         6        2.0000           -0.5576544             -15.1745
         7        2.0000           -0.4808036             -13.0833
         8        2.0000           -0.4807975             -13.0832
         9        2.0000           -0.4566274             -12.4255
        10        1.0000           -0.4325889             -11.7713
        11        1.0000           -0.3675909             -10.0027
        12        1.0000           -0.3675636             -10.0019 (HOMO)
        13                         -0.2406724              -6.5490 (LUMO)
        14                         -0.2406527              -6.5485
        15                         -0.1091515              -2.9702
        16                         -0.1090139              -2.9664
        17                          0.0578301               1.5736
        18                          0.4876709              13.2702
        19                          0.9897939              26.9337
        20                          1.4353200              39.0570
      -------------------------------------------------------------
                  HL-Gap            0.1268911 Eh            3.4529 eV

     #   Z        covCN         q      C6AA      Î±(0)
     1   6 C      1.903     0.056    29.688     8.800
     2   7 N      1.822     0.098    20.175     6.655
     3   6 C      0.983    -0.041    37.190    10.244
     4   6 C      0.920    -0.134    39.810    10.565
     5   6 C      1.962     0.021    30.531     8.923

Wiberg/Mayer (AO) data.
largest (>0.10) Wiberg bond orders for each atom
          total WBO             WBO to atom ...

molecular dipole:
                 x           y           z       tot (Debye)
 q only:        0.199       0.065      -0.124
   full:        0.546       0.172      -0.334       1.685

 projected vibrational frequencies (cm-1)
eigval :       -0.00    -0.00    -0.00    -0.00     0.00     0.00
eigval :       76.36   212.20   213.01   353.09   356.01   829.32
eigval :     1647.87  1888.11  1993.97
Molecule has the following symmetry elements: (Cinf) (sigma)
It seems to be the Cinfv point group

   temp. (K)  partition function   enthalpy   heat capacity  entropy
                                   cal/mol     cal/K/mol   cal/K/mol   J/K/mol
  10.00  VIB   1.00                    0.004      0.004     -0.048
         ROT   7.21                   29.809      2.981      6.908
         INT   7.21                   29.813      2.985      6.860
         TR   0.290E+25               49.681      4.968     21.419
         TOT                          79.4941     7.9531    28.2794   118.3211

       T/K    H(0)-H(T)+PV         H(T)/Eh          T*S/Eh         G(T)/Eh
   ------------------------------------------------------------------------
    298.15    0.642739E-02    0.236730E-01    0.312090E-01   -0.753598E-02
    120.00    0.196350E-02    0.192091E-01    0.990415E-02    0.930494E-02
    100.00    0.155595E-02    0.188015E-01    0.788619E-02    0.109154E-01
     80.00    0.118019E-02    0.184258E-01    0.597749E-02    0.124483E-01
     60.00    0.839006E-03    0.180846E-01    0.419199E-02    0.138926E-01
     40.00    0.531483E-03    0.177771E-01    0.254738E-02    0.152297E-01
     20.00    0.254790E-03    0.175004E-01    0.108186E-02    0.164185E-01
     10.00    0.126682E-03    0.173723E-01    0.450661E-03    0.169216E-01 (used)
   ------------------------------------------------------------------------

         :::::::::::::::::::::::::::::::::::::::::::::::::::::
         ::                  THERMODYNAMIC                  ::
         :::::::::::::::::::::::::::::::::::::::::::::::::::::
         :: total free energy         -11.079115304519 Eh   ::
         ::.................................................::
         :: total energy              -11.096036918699 Eh   ::
         :: zero point energy           0.017245593600 Eh   ::
         :: G(RRHO) w/o ZPVE           -0.000323979420 Eh   ::
         :: G(RRHO) contrib.            0.016921614180 Eh   ::
         :::::::::::::::::::::::::::::::::::::::::::::::::::::

           -------------------------------------------------
          | TOTAL ENERGY              -11.096036918699 Eh   |
          | TOTAL ENTHALPY            -11.078664643196 Eh   |
          | TOTAL FREE ENERGY         -11.079115304519 Eh   |
          | GRADIENT NORM               0.000663660319 Eh/Î± |
          | HOMO-LUMO GAP               3.452883763470 eV   |
           -------------------------------------------------

 * finished run on 2020/05/12 at 11:43:57.390
