 Gaussian 16, Revision B.01,

 --------------------------------------------------------
 #P M062X/cc-pvtz nosymm opt(noeigentest) optcyc=120 freq
 --------------------------------------------------------

 -----
 Title
 -----
 Symbolic Z-matrix:
 Charge =  0 Multiplicity = 2

 SCF Done:  E(UM062X) =  -190.808608934     A.U. after   25 cycles
 SCF Done:  E(UM062X) =  -190.823819207     A.U. after   25 cycles
 SCF Done:  E(UM062X) =  -190.826667530     A.U. after   25 cycles
 SCF Done:  E(UM062X) =  -190.826630602     A.U. after   19 cycles
 SCF Done:  E(UM062X) =  -190.825610187     A.U. after   20 cycles
 SCF Done:  E(UM062X) =  -190.825454066     A.U. after   19 cycles
 SCF Done:  E(UM062X) =  -190.826740396     A.U. after   14 cycles
 SCF Done:  E(UM062X) =  -190.826859847     A.U. after   19 cycles
 SCF Done:  E(UM062X) =  -190.826858725     A.U. after   15 cycles
 SCF Done:  E(UM062X) =  -190.826860389     A.U. after   10 cycles
 Optimization completed.
    -- Stationary point found.
 Normal termination of Gaussian 16 at Mon Sep 28 11:17:33 2020.

 -------------------------------------------------------------------
 #P Geom=AllCheck Guess=TCheck SCRF=Check GenChk UM062X/CC-pVTZ Freq
 -------------------------------------------------------------------

 Structure from the checkpoint file:  "input.chk"
 -----
 Title
 -----
 Charge =  0 Multiplicity = 2

 SCF Done:  E(UM062X) =  -190.826860389     A.U. after    2 cycles

 Alpha  occ. eigenvalues --  -10.64012 -10.61261 -10.61246 -10.60510 -10.57216
 Alpha  occ. eigenvalues --   -0.95918  -0.90041  -0.81566  -0.71707  -0.63738
 Alpha  occ. eigenvalues --   -0.48771  -0.47449  -0.39745  -0.38241  -0.37551
 Alpha  occ. eigenvalues --   -0.27160
 Alpha virt. eigenvalues --   -0.13232   0.02617   0.04294   0.06437   0.15943
 Alpha virt. eigenvalues --    0.17018   0.19214   0.20212   0.23556   0.25328
 Alpha virt. eigenvalues --    0.28833   0.29093   0.29871   0.32974   0.33205

  Beta  occ. eigenvalues --  -10.63619 -10.61019 -10.60854 -10.60626 -10.57368
  Beta  occ. eigenvalues --   -0.95055  -0.89298  -0.79763  -0.70802  -0.63192
  Beta  occ. eigenvalues --   -0.46855  -0.46121  -0.37192  -0.36485  -0.36277
  Beta virt. eigenvalues --   -0.11415  -0.09980   0.04716   0.05540   0.06306
  Beta virt. eigenvalues --    0.15355   0.16754   0.20372   0.20959   0.23903
  Beta virt. eigenvalues --    0.25674   0.29006   0.29261   0.29914   0.32886

 Mulliken charges and spin densities:
               1          2
     1  C   -0.143293  -0.256743
     2  C    0.510677   0.551756
     3  C    0.220071  -0.233606
     4  C   -0.621471   0.365606
     5  H    0.141741  -0.003097
     6  C   -0.107724   0.576084
 Sum of Mulliken charges =  -0.00000   1.00000

 Dipole moment (field-independent basis, Debye):
    X=              0.0004    Y=              0.0000    Z=              4.8082  Tot=              4.8082
 Quadrupole moment (field-independent basis, Debye-Ang):
   XX=            -28.1138   YY=            -29.8715   ZZ=            -15.7100
   XY=             -0.0348   XZ=              0.0148   YZ=              0.0000

  Exact polarizability:  28.864   0.015  29.599   0.022   0.000 135.988
 Approx polarizability:  35.533  -0.012  34.923   0.035   0.000 209.467

                      1                      2                      3
                      A                      A                      A
 Frequencies --    129.8275               284.8011               367.8043
 Red. masses --      6.8699                 6.1690                 9.3568
 Frc consts  --      0.0682                 0.2948                 0.7458
 IR Inten    --      1.5787                 8.2088                 4.9389

                      4                      5                      6
                      A                      A                      A
 Frequencies --    424.9941               547.9214               594.1304
 Red. masses --      9.8052                 1.2867                 9.2136
 Frc consts  --      1.0434                 0.2276                 1.9162
 IR Inten    --      0.2751                58.2095                 5.7222

                      7                      8                      9
                      A                      A                      A
 Frequencies --    765.8032               794.3275              1447.4876
 Red. masses --      9.2169                 1.3222                10.3048
 Frc consts  --      3.1847                 0.4915                12.7209
 IR Inten    --      9.3539                25.0018               123.8631

                     10                     11                     12
                      A                      A                      A
 Frequencies --   1910.0096              2111.1806              3469.6552
 Red. masses --     11.9791                 6.6744                 1.1472
 Frc consts  --     25.7481                17.5272                 8.1367
 IR Inten    --    644.7626                 1.3612               121.8689

 - Thermochemistry -
 -------------------
 Temperature   298.150 Kelvin.  Pressure   1.00000 Atm.
 Atom     1 has atomic number  6 and mass  12.00000

 Molecular mass:    61.00783 amu.
 Principal axes and moments of inertia in atomic units:
                           1         2         3
     Eigenvalues --     0.00007 750.43028 750.43036
           X            0.00018   1.00000   0.00269
           Y           -0.00000  -0.00269   1.00000
           Z            1.00000  -0.00018   0.00000
 This molecule is an asymmetric top.
 Rotational symmetry number  1.
 Rotational temperatures (Kelvin) ************     0.11542     0.11542
 Rotational constants (GHZ):      ************     2.40494     2.40494
 Zero-point vibrational energy      76847.8 (Joules/Mol)
                                   18.36706 (Kcal/Mol)
 Warning -- explicit consideration of   6 degrees of freedom as
           vibrations may cause significant error
 Vibrational temperatures:    186.79   409.77   529.19   611.47   788.34
          (Kelvin)            854.82  1101.82  1142.86  2082.61  2748.08
                             3037.52  4992.06

 Zero-point correction=                           0.029270 (Hartree/Particle)
 Thermal correction to Energy=                    0.034379
 Thermal correction to Enthalpy=                  0.035323
 Thermal correction to Gibbs Free Energy=         0.007283
 Sum of electronic and zero-point Energies=           -190.797591
 Sum of electronic and thermal Energies=              -190.792481
 Sum of electronic and thermal Enthalpies=            -190.791537
 Sum of electronic and thermal Free Energies=         -190.819578

                     E (Thermal)             CV                S
                      KCal/Mol        Cal/Mol-Kelvin    Cal/Mol-Kelvin
 Total                   21.573             16.213             59.017
 Electronic               0.000              0.000              1.377
 Translational            0.889              2.981             38.245
 Rotational               0.889              2.981             11.502
 Vibrational             19.796             10.252              7.892
 Vibration     1          0.612              1.923              2.949
 Vibration     2          0.683              1.702              1.505
 Vibration     3          0.740              1.538              1.089
 Vibration     4          0.787              1.416              0.875
 Vibration     5          0.903              1.144              0.548
 Vibration     6          0.952              1.044              0.460

 Optimization completed.
    -- Stationary point found.
 Normal termination of Gaussian 16 at Mon Sep 28 11:19:13 2020.
 Gaussian 16:  ES64L-G16RevB.01 20-Dec-2017

 -----------------------------------------------
 #P CCSD(T)/aug-cc-pvtz geom=allcheck guess=read
 -----------------------------------------------

 Structure from the checkpoint file:  "input.chk"
 -----
 Title
 -----
 Charge =  0 Multiplicity = 2

                         Standard orientation:
 ---------------------------------------------------------------------
 Center     Atomic      Atomic             Coordinates (Angstroms)
 Number     Number       Type             X           Y           Z
 ---------------------------------------------------------------------
      1          6           0       -1.384688   -0.000374    0.000011
      2          6           0       -0.127556   -0.000679    0.000003
      3          6           0        1.206792   -0.000405   -0.000013
      4          6           0        2.419876    0.000461    0.000003
      5          1           0        3.483605    0.001416    0.000015
      6          6           0       -2.695025    0.000762   -0.000006
 ---------------------------------------------------------------------

 SCF Done:  E(UHF) =  -189.724372581     A.U. after  129 cycles
 Error termination via Lnk1e in /applis/site/cecic/gaussian16/B.01/nehalem/g16/l801.exe at Mon Sep 28 11:24:07 2020.
