   * xtb version 6.2.2 (9d81278992624c895f80dd42a50cac0aa55982e2) compiled by '@Darwin' on 04/03/2020
          program call               : xtb --input O2_0_S_2.input O2_0_S_2.xyz --ohess --molden --namespace O2_0_S_2 output.out
          number of atoms            :                     2
          number of electrons        :                    12
          charge                     :                     0
          spin                       :                   1.0

   ID    Z sym.   atoms
    1    8 O      1, 2

          :  Hamiltonian                  GFN2-xTB          :
 * total energy  :    -7.8911007 Eh     change        0.8881784E-15 Eh
 * total energy  :    -7.9034958 Eh     change       -0.1239513E-01 Eh
 * total energy  :    -7.9040139 Eh     change       -0.5180836E-03 Eh
 * total energy  :    -7.9041178 Eh     change       -0.1039547E-03 Eh
 * total energy  :    -7.9041182 Eh     change       -0.3869052E-06 Eh
   *** GEOMETRY OPTIMIZATION CONVERGED AFTER 5 ITERATIONS ***

 final structure:
================
2
 xtb: 6.2.2 (9d81278992624c895f80dd42a50cac0aa55982e2)
O         0.60477200739977    0.00000000000000    0.00000000000000
O        -0.60477200739977    0.00000000000000    0.00000000000000

          :  Hamiltonian                  GFN2-xTB          :
         :: gradient norm              0.000578075393 Eh/a0 ::
         :: HOMO-LUMO gap             15.442909444611 eV    ::
         :: SCC energy                -7.912345494262 Eh    ::
         :: -> dispersion             -0.000194536017 Eh    ::
         :: repulsion energy           0.008227271867 Eh    ::

    * Orbital Energies and Occupations

         #    Occupation            Energy/Eh            Energy/eV
      -------------------------------------------------------------
         1        2.0000           -0.8271750             -22.5086
         2        2.0000           -0.7368837             -20.0516
         3        2.0000           -0.6615024             -18.0004
         4        2.0000           -0.6615024             -18.0004
         5        2.0000           -0.6381459             -17.3648
         6        1.0000           -0.4427919             -12.0490
         7        1.0000           -0.4427919             -12.0490 (HOMO)
         8                          0.1247245               3.3939 (LUMO)
      -------------------------------------------------------------
                  HL-Gap            0.5675165 Eh           15.4429 eV

     #   Z        covCN         q      C6AA      Î±(0)
     1   8 O      0.979    -0.000    15.074     5.208
     2   8 O      0.979     0.000    15.074     5.208

Wiberg/Mayer (AO) data.
largest (>0.10) Wiberg bond orders for each atom
          total WBO             WBO to atom ...

molecular dipole:
                 x           y           z       tot (Debye)
 q only:       -0.000       0.000       0.000
   full:       -0.000      -0.000       0.000       0.000

   temp. (K)  partition function   enthalpy   heat capacity  entropy
                                   cal/mol     cal/K/mol   cal/K/mol   J/K/mol
  10.00  VIB   1.00                    0.000      0.000     -0.000
         ROT   2.41                   19.873      1.987      3.737
         INT   2.41                   19.873      1.987      3.737
         TR   0.108E+25               49.681      4.968     19.446
         TOT                          69.5541     6.9554    23.1838    97.0011

       T/K    H(0)-H(T)+PV         H(T)/Eh          T*S/Eh         G(T)/Eh
   ------------------------------------------------------------------------
    298.15    0.330759E-02    0.702169E-02    0.222343E-01   -0.152126E-01
    120.00    0.133010E-02    0.504421E-02    0.773751E-02   -0.269330E-02
    100.00    0.110842E-02    0.482252E-02    0.624591E-02   -0.142338E-02
     80.00    0.886732E-03    0.460084E-02    0.479893E-02   -0.198085E-03
     60.00    0.665049E-03    0.437916E-02    0.340794E-02    0.971219E-03
     40.00    0.443366E-03    0.415747E-02    0.209225E-02    0.206522E-02
     20.00    0.221683E-03    0.393579E-02    0.892521E-03    0.304327E-02
     10.00    0.110842E-03    0.382495E-02    0.369458E-03    0.345549E-02 (used)
   ------------------------------------------------------------------------

         :::::::::::::::::::::::::::::::::::::::::::::::::::::
         ::                  THERMODYNAMIC                  ::
         :::::::::::::::::::::::::::::::::::::::::::::::::::::
         :: total free energy          -7.900662729946 Eh   ::
         ::.................................................::
         :: total energy               -7.904118222395 Eh   ::
         :: zero point energy           0.003714108575 Eh   ::
         :: G(RRHO) w/o ZPVE           -0.000258616127 Eh   ::
         :: G(RRHO) contrib.            0.003455492448 Eh   ::
         :::::::::::::::::::::::::::::::::::::::::::::::::::::

           -------------------------------------------------
          | TOTAL ENERGY               -7.904118222395 Eh   |
          | TOTAL ENTHALPY             -7.900293272306 Eh   |
          | TOTAL FREE ENERGY          -7.900662729946 Eh   |
          | GRADIENT NORM               0.000578075393 Eh/Î± |
          | HOMO-LUMO GAP              15.442909444389 eV   |
           -------------------------------------------------

 * finished run on 2020/05/14 at 11:41:35.465
