   * xtb version 6.2.2 (9d81278992624c895f80dd42a50cac0aa55982e2) compiled by '@Darwin' on 04/03/2020
          program call               : xtb --input H2C1N2_12_S_2.input H2C1N2_12_S_2.xyz --ohess --molden --namespace H2C1N2_12_S_2 output.out
          number of atoms            :                     5
          number of electrons        :                    16
          charge                     :                     0
          spin                       :                   1.0

   ID    Z sym.   atoms
    1    7 N      1, 3
    2    6 C      2
    3    1 H      4, 5

          :  Hamiltonian                  GFN2-xTB          :
 * total energy  :    -8.7166463 Eh     change        0.4086740E-09 Eh
 * total energy  :    -8.7222720 Eh     change       -0.5625777E-02 Eh
 * total energy  :    -8.7250909 Eh     change       -0.2818862E-02 Eh
 * total energy  :    -8.7251974 Eh     change       -0.1065095E-03 Eh
 * total energy  :    -8.7252355 Eh     change       -0.3804611E-04 Eh
 * total energy  :    -8.7252600 Eh     change       -0.2456057E-04 Eh
 * total energy  :    -8.7252664 Eh     change       -0.6424318E-05 Eh
 * total energy  :    -8.7252678 Eh     change       -0.1331997E-05 Eh
   *** GEOMETRY OPTIMIZATION CONVERGED AFTER 8 ITERATIONS ***

 final structure:
================
5
 xtb: 6.2.2 (9d81278992624c895f80dd42a50cac0aa55982e2)
N         0.60356503330424   -0.03652819927998    0.41655564014345
C        -0.03153039013917    1.09953480932224   -0.08245733537429
N        -0.59871688587381   -0.13253165521990   -0.40387615880873
H         1.42087422537246   -0.43202853902105   -0.06051315751725
H        -1.39419198266373   -0.49844641580131    0.13029201155682

          :  Hamiltonian                  GFN2-xTB          :
         :: gradient norm              0.000355295232 Eh/a0 ::
         :: HOMO-LUMO gap              4.539388483177 eV    ::
         :: SCC energy                -8.796877807452 Eh    ::
         :: -> dispersion             -0.001431385174 Eh    ::
         :: repulsion energy           0.071610016805 Eh    ::

    * Orbital Energies and Occupations

         #    Occupation            Energy/Eh            Energy/eV
      -------------------------------------------------------------
         1        2.0000           -0.7118676             -19.3709
         2        2.0000           -0.6135977             -16.6968
         3        2.0000           -0.5892473             -16.0342
         4        2.0000           -0.5455966             -14.8464
         5        2.0000           -0.5318240             -14.4717
         6        2.0000           -0.4650847             -12.6556
         7        2.0000           -0.4150997             -11.2954
         8        1.0000           -0.3899858             -10.6121
         9        1.0000           -0.2861562              -7.7867 (HOMO)
        10                         -0.1193369              -3.2473 (LUMO)
        11                         -0.0024466              -0.0666
        12                          0.0834698               2.2713
        13                          0.1545077               4.2044
        14                          0.3216945               8.7538
      -------------------------------------------------------------
                  HL-Gap            0.1668193 Eh            4.5394 eV

     #   Z        covCN         q      C6AA      Î±(0)
     1   7 N      2.742    -0.130    23.819     7.248
     2   6 C      1.819    -0.057    32.715     9.242
     3   7 N      2.742    -0.130    23.819     7.248
     4   1 H      0.859     0.158     1.345     1.817
     5   1 H      0.859     0.158     1.345     1.817

Wiberg/Mayer (AO) data.
largest (>0.10) Wiberg bond orders for each atom
          total WBO             WBO to atom ...

molecular dipole:
                 x           y           z       tot (Debye)
 q only:        0.010      -0.355       0.027
   full:        0.017      -0.600       0.045       1.530

 projected vibrational frequencies (cm-1)
eigval :       -0.00    -0.00    -0.00     0.00     0.00     0.00
eigval :      629.81   934.47   971.62  1070.78  1082.30  1132.53
eigval :     1458.74  3139.53  3144.38

   temp. (K)  partition function   enthalpy   heat capacity  entropy
                                   cal/mol     cal/K/mol   cal/K/mol   J/K/mol
  10.00  VIB   1.00                    0.000      0.000     -0.000
         ROT   21.3                   29.809      2.981      9.055
         INT   21.3                   29.809      2.981      9.055
         TR   0.162E+25               49.681      4.968     20.259
         TOT                          79.4904     7.9490    29.3140   122.6498

       T/K    H(0)-H(T)+PV         H(T)/Eh          T*S/Eh         G(T)/Eh
   ------------------------------------------------------------------------
    298.15    0.409208E-02    0.349935E-01    0.271427E-01    0.785078E-02
    120.00    0.152175E-02    0.324232E-01    0.938385E-02    0.230393E-01
    100.00    0.126711E-02    0.321685E-01    0.758783E-02    0.245807E-01
     80.00    0.101344E-02    0.319149E-01    0.584392E-02    0.260709E-01
     60.00    0.760057E-03    0.316615E-01    0.416433E-02    0.274971E-01
     40.00    0.506704E-03    0.314081E-01    0.257083E-02    0.288373E-01
     20.00    0.253352E-03    0.311548E-01    0.110986E-02    0.300449E-01
     10.00    0.126676E-03    0.310281E-01    0.467149E-03    0.305609E-01 (used)
   ------------------------------------------------------------------------

         :::::::::::::::::::::::::::::::::::::::::::::::::::::
         ::                  THERMODYNAMIC                  ::
         :::::::::::::::::::::::::::::::::::::::::::::::::::::
         :: total free energy          -8.694706825068 Eh   ::
         ::.................................................::
         :: total energy               -8.725267770524 Eh   ::
         :: zero point energy           0.030901417954 Eh   ::
         :: G(RRHO) w/o ZPVE           -0.000340472497 Eh   ::
         :: G(RRHO) contrib.            0.030560945457 Eh   ::
         :::::::::::::::::::::::::::::::::::::::::::::::::::::

           -------------------------------------------------
          | TOTAL ENERGY               -8.725267770524 Eh   |
          | TOTAL ENTHALPY             -8.694239676555 Eh   |
          | TOTAL FREE ENERGY          -8.694706825068 Eh   |
          | GRADIENT NORM               0.000355435259 Eh/Î± |
          | HOMO-LUMO GAP               4.539383920444 eV   |
           -------------------------------------------------

 * finished run on 2020/05/12 at 11:45:24.094
