   * xtb version 6.2.2 (9d81278992624c895f80dd42a50cac0aa55982e2) compiled by '@Darwin' on 04/03/2020
          program call               : xtb --input H2C2_0_S_0.input H2C2_0_S_0.xyz --ohess --molden --namespace H2C2_0_S_0 output.out
          number of atoms            :                     4
          number of electrons        :                    10
          charge                     :                     0
          spin                       :                   0.0

   ID    Z sym.   atoms
    1    6 C      1, 2
    2    1 H      3, 4

          :  Hamiltonian                  GFN2-xTB          :
 * total energy  :    -5.0605694 Eh     change       -0.3103988E-09 Eh
 * total energy  :    -5.1089145 Eh     change       -0.4834516E-01 Eh
 * total energy  :    -5.1120950 Eh     change       -0.3180427E-02 Eh
 * total energy  :    -5.1176481 Eh     change       -0.5553156E-02 Eh
 * total energy  :    -5.1191089 Eh     change       -0.1460817E-02 Eh
 * total energy  :    -5.1199533 Eh     change       -0.8443460E-03 Eh
 * total energy  :    -5.1200366 Eh     change       -0.8335227E-04 Eh
 * total energy  :    -5.1200536 Eh     change       -0.1698777E-04 Eh
 * total energy  :    -5.1200538 Eh     change       -0.1699720E-06 Eh
   *** GEOMETRY OPTIMIZATION CONVERGED AFTER 9 ITERATIONS ***

 final structure:
================
4
 xtb: 6.2.2 (9d81278992624c895f80dd42a50cac0aa55982e2)
C        -0.02272186466349    0.00145077154287   -0.00042809334939
C         1.25771402046290   -0.08029021634496    0.01722176362594
H        -0.56006844543261    0.93939997498390   -0.00653559410257
H        -0.67492371036679   -0.86056053018181   -0.01025807617397

          :  Hamiltonian                  GFN2-xTB          :
         :: gradient norm              0.000162413411 Eh/a0 ::
         :: HOMO-LUMO gap              2.494224907826 eV    ::
         :: SCC energy                -5.222429912037 Eh    ::
         :: -> dispersion             -0.000798073778 Eh    ::
         :: repulsion energy           0.102376106457 Eh    ::

    * Orbital Energies and Occupations

         #    Occupation            Energy/Eh            Energy/eV
      -------------------------------------------------------------
         1        2.0000           -0.6354741             -17.2921
         2        2.0000           -0.5543679             -15.0851
         3        2.0000           -0.5074197             -13.8076
         4        2.0000           -0.4294206             -11.6851
         5        2.0000           -0.4089604             -11.1284 (HOMO)
         6                         -0.3172993              -8.6342 (LUMO)
         7                         -0.2078560              -5.6560
         8                          0.1619516               4.4069
         9                          0.2779961               7.5647
        10                          0.6662056              18.1284
      -------------------------------------------------------------
Molecule has the following symmetry elements: (C2) 2*(sigma)
It seems to be the C2v point group
                  HL-Gap            0.0916611 Eh            2.4942 eV

     #   Z        covCN         q      C6AA      Î±(0)
     1   6 C      2.832    -0.071    29.758     8.939
     2   6 C      0.981    -0.142    40.523    10.692
     3   1 H      0.926     0.106     1.729     2.056
     4   1 H      0.926     0.106     1.729     2.056

Wiberg/Mayer (AO) data.
largest (>0.10) Wiberg bond orders for each atom
          total WBO             WBO to atom ...

molecular dipole:
                 x           y           z       tot (Debye)
 q only:       -0.582       0.037      -0.008
   full:       -1.139       0.073      -0.016       2.902

 projected vibrational frequencies (cm-1)
eigval :       -0.00    -0.00     0.00     0.00     0.00     0.00
eigval :      284.71   824.85  1165.91  1739.46  3035.14  3039.84

   temp. (K)  partition function   enthalpy   heat capacity  entropy
                                   cal/mol     cal/K/mol   cal/K/mol   J/K/mol
  10.00  VIB   1.00                    0.000      0.000     -0.002
         ROT   4.06                   29.809      2.981      5.768
         INT   4.06                   29.809      2.981      5.766
         TR   0.790E+24               49.681      4.968     18.832
         TOT                          79.4904     7.9490    24.5983   102.9195

       T/K    H(0)-H(T)+PV         H(T)/Eh          T*S/Eh         G(T)/Eh
   ------------------------------------------------------------------------
    298.15    0.430902E-02    0.272955E-01    0.253360E-01    0.195951E-02
    120.00    0.156447E-02    0.245510E-01    0.853768E-02    0.160133E-01
    100.00    0.128873E-02    0.242752E-01    0.686354E-02    0.174117E-01
     80.00    0.102121E-02    0.240077E-01    0.525224E-02    0.187555E-01
     60.00    0.761464E-03    0.237480E-01    0.371520E-02    0.200328E-01
     40.00    0.506750E-03    0.234933E-01    0.227036E-02    0.212229E-01
     20.00    0.253352E-03    0.232399E-01    0.959577E-03    0.222803E-01
     10.00    0.126676E-03    0.231132E-01    0.392000E-03    0.227212E-01 (used)
   ------------------------------------------------------------------------

         :::::::::::::::::::::::::::::::::::::::::::::::::::::
         ::                  THERMODYNAMIC                  ::
         :::::::::::::::::::::::::::::::::::::::::::::::::::::
         :: total free energy          -5.097332612777 Eh   ::
         ::.................................................::
         :: total energy               -5.120053800655 Eh   ::
         :: zero point energy           0.022986511372 Eh   ::
         :: G(RRHO) w/o ZPVE           -0.000265323495 Eh   ::
         :: G(RRHO) contrib.            0.022721187877 Eh   ::
         :::::::::::::::::::::::::::::::::::::::::::::::::::::

           -------------------------------------------------
          | TOTAL ENERGY               -5.120053800655 Eh   |
          | TOTAL ENTHALPY             -5.096940613267 Eh   |
          | TOTAL FREE ENERGY          -5.097332612777 Eh   |
          | GRADIENT NORM               0.000162466132 Eh/Î± |
          | HOMO-LUMO GAP               2.494224577134 eV   |
           -------------------------------------------------

 * finished run on 2020/05/12 at 11:44:29.296
