   * xtb version 6.2.2 (9d81278992624c895f80dd42a50cac0aa55982e2) compiled by '@Darwin' on 04/03/2020
          program call               : xtb --input N1O2_1_S_1.input N1O2_1_S_1.xyz --ohess --molden --namespace N1O2_1_S_1 output.out
          number of atoms            :                     3
          number of electrons        :                    17
          charge                     :                     0
          spin                       :                   0.5

   ID    Z sym.   atoms
    1    8 O      1, 2
    2    7 N      3

          :  Hamiltonian                  GFN2-xTB          :
 * total energy  :   -10.7322815 Eh     change        0.4106049E-10 Eh
 * total energy  :   -10.7489774 Eh     change       -0.1669592E-01 Eh
 * total energy  :   -10.7676014 Eh     change       -0.1862404E-01 Eh
 * total energy  :   -10.7674845 Eh     change        0.1169737E-03 Eh
 * total energy  :   -10.7775842 Eh     change       -0.1009977E-01 Eh
 * total energy  :   -10.7788513 Eh     change       -0.1267045E-02 Eh
 * total energy  :   -10.7790334 Eh     change       -0.1821400E-03 Eh
 * total energy  :   -10.7790596 Eh     change       -0.2615392E-04 Eh
 * total energy  :   -10.7790597 Eh     change       -0.8470269E-07 Eh
   *** GEOMETRY OPTIMIZATION CONVERGED AFTER 9 ITERATIONS ***

 final structure:
================
3
 xtb: 6.2.2 (9d81278992624c895f80dd42a50cac0aa55982e2)
O         0.02864406261279    0.30011394864355    0.00000000000000
O        -1.14541196747458   -0.16667907352516    0.00000000000000
N         1.11676790486179   -0.13343487511839    0.00000000000000

          :  Hamiltonian                  GFN2-xTB          :
         :: gradient norm              0.000111390296 Eh/a0 ::
         :: HOMO-LUMO gap              1.276846286408 eV    ::
         :: SCC energy               -10.809308703037 Eh    ::
         :: -> dispersion             -0.000633910655 Eh    ::
         :: repulsion energy           0.030249049346 Eh    ::

    * Orbital Energies and Occupations

         #    Occupation            Energy/Eh            Energy/eV
      -------------------------------------------------------------
         1        2.0000           -0.8747559             -23.8033
         2        2.0000           -0.8239777             -22.4216
         3        2.0000           -0.7338602             -19.9694
         4        2.0000           -0.7219188             -19.6444
         5        2.0000           -0.6585643             -17.9204
         6        2.0000           -0.5584738             -15.1968
         7        2.0000           -0.5109921             -13.9048
         8        2.0000           -0.4955114             -13.4836
         9        1.0000           -0.4111846             -11.1889 (HOMO)
        10                         -0.3642614              -9.9121 (LUMO)
        11                         -0.0493654              -1.3433
        12                          0.4498985              12.2424
      -------------------------------------------------------------
                  HL-Gap            0.0469232 Eh            1.2768 eV

     #   Z        covCN         q      C6AA      Î±(0)
     1   8 O      1.900     0.322    10.917     4.462
     2   8 O      0.979    -0.268    19.166     5.872
     3   7 N      0.925    -0.054    22.213     6.809

Wiberg/Mayer (AO) data.
largest (>0.10) Wiberg bond orders for each atom
          total WBO             WBO to atom ...

molecular dipole:
                 x           y           z       tot (Debye)
 q only:        0.485       0.281      -0.000
   full:        0.331       0.318      -0.000       1.168

 projected vibrational frequencies (cm-1)
eigval :       -0.00    -0.00    -0.00     0.00     0.00     0.00
eigval :      621.26  1129.84  1660.25

   temp. (K)  partition function   enthalpy   heat capacity  entropy
                                   cal/mol     cal/K/mol   cal/K/mol   J/K/mol
  10.00  VIB   1.00                    0.000      0.000     -0.000
         ROT   26.8                   29.809      2.981      9.516
         INT   26.8                   29.809      2.981      9.516
         TR   0.185E+25               49.681      4.968     20.528
         TOT                          79.4904     7.9490    30.0443   125.7055

       T/K    H(0)-H(T)+PV         H(T)/Eh          T*S/Eh         G(T)/Eh
   ------------------------------------------------------------------------
    298.15    0.395015E-02    0.117218E-01    0.273196E-01   -0.155979E-01
    120.00    0.152177E-02    0.929337E-02    0.952353E-02   -0.230157E-03
    100.00    0.126713E-02    0.903874E-02    0.770423E-02    0.133450E-02
     80.00    0.101345E-02    0.878505E-02    0.593703E-02    0.284802E-02
     60.00    0.760057E-03    0.853166E-02    0.423415E-02    0.429751E-02
     40.00    0.506704E-03    0.827831E-02    0.261738E-02    0.566093E-02
     20.00    0.253352E-03    0.802495E-02    0.113313E-02    0.689182E-02
     10.00    0.126676E-03    0.789828E-02    0.478787E-03    0.741949E-02 (used)
   ------------------------------------------------------------------------

         :::::::::::::::::::::::::::::::::::::::::::::::::::::
         ::                  THERMODYNAMIC                  ::
         :::::::::::::::::::::::::::::::::::::::::::::::::::::
         :: total free energy         -10.771640162732 Eh   ::
         ::.................................................::
         :: total energy              -10.779059654639 Eh   ::
         :: zero point energy           0.007771602962 Eh   ::
         :: G(RRHO) w/o ZPVE           -0.000352111055 Eh   ::
         :: G(RRHO) contrib.            0.007419491907 Eh   ::
         :::::::::::::::::::::::::::::::::::::::::::::::::::::

           -------------------------------------------------
          | TOTAL ENERGY              -10.779059654639 Eh   |
          | TOTAL ENTHALPY            -10.771161375662 Eh   |
          | TOTAL FREE ENERGY         -10.771640162732 Eh   |
          | GRADIENT NORM               0.000111204284 Eh/Î± |
          | HOMO-LUMO GAP               1.276846381994 eV   |
           -------------------------------------------------

 * finished run on 2020/05/12 at 11:45:16.688
