   * xtb version 6.2.2 (9d81278992624c895f80dd42a50cac0aa55982e2) compiled by '@Darwin' on 04/03/2020
          program call               : xtb --input H1C3N1_29_S_2.input H1C3N1_29_S_2.xyz --ohess --molden --namespace H1C3N1_29_S_2 output.out
          number of atoms            :                     5
          number of electrons        :                    18
          charge                     :                     0
          spin                       :                   1.0

   ID    Z sym.   atoms
    1    7 N      1
    2    6 C      2-4
    3    1 H      5

          :  Hamiltonian                  GFN2-xTB          :
 * total energy  :    -9.4362322 Eh     change       -0.1651159E-09 Eh
 * total energy  :    -9.4673098 Eh     change       -0.3107760E-01 Eh
 * total energy  :    -9.4840780 Eh     change       -0.1676814E-01 Eh
 * total energy  :    -9.4921162 Eh     change       -0.8038244E-02 Eh
 * total energy  :    -9.4934756 Eh     change       -0.1359346E-02 Eh
 * total energy  :    -9.4938346 Eh     change       -0.3590485E-03 Eh
 * total energy  :    -9.4940938 Eh     change       -0.2591678E-03 Eh
 * total energy  :    -9.4942396 Eh     change       -0.1458512E-03 Eh
 * total energy  :    -9.4943303 Eh     change       -0.9065006E-04 Eh
 * total energy  :    -9.4943466 Eh     change       -0.1631032E-04 Eh
 * total energy  :    -9.4943471 Eh     change       -0.5501909E-06 Eh
   *** GEOMETRY OPTIMIZATION CONVERGED AFTER 11 ITERATIONS ***

 final structure:
================
5
 xtb: 6.2.2 (9d81278992624c895f80dd42a50cac0aa55982e2)
N        -0.71013972354288    0.16432435179055    0.13805754614079
C         0.39368196486579   -0.34912746731563    0.83066093824127
C         1.37443275758695   -0.18598440731652   -0.15964933635731
C         0.38568883391100    0.74506476536954   -0.51283766669793
H        -1.44366383282086   -0.37427724252793   -0.29623048132683

          :  Hamiltonian                  GFN2-xTB          :
         :: gradient norm              0.000266071039 Eh/a0 ::
         :: HOMO-LUMO gap              2.383750371408 eV    ::
         :: SCC energy                -9.611178852263 Eh    ::
         :: -> dispersion             -0.002080243115 Eh    ::
         :: repulsion energy           0.116831689552 Eh    ::

    * Orbital Energies and Occupations

         #    Occupation            Energy/Eh            Energy/eV
      -------------------------------------------------------------
         1        2.0000           -0.7229966             -19.6737
         2        2.0000           -0.6416390             -17.4599
         3        2.0000           -0.6072447             -16.5240
         4        2.0000           -0.5908102             -16.0768
         5        2.0000           -0.5274514             -14.3527
         6        2.0000           -0.5228335             -14.2270
         7        2.0000           -0.4487383             -12.2108
         8        2.0000           -0.4268139             -11.6142
         9        1.0000           -0.3713745             -10.1056
        10        1.0000           -0.3648079              -9.9269 (HOMO)
        11                         -0.2772067              -7.5432 (LUMO)
        12                         -0.2367166              -6.4414
        13                          0.0318398               0.8664
        14                          0.0919720               2.5027
        15                          0.1703284               4.6349
        16                          0.2451336               6.6704
        17                          0.4768105              12.9747
      -------------------------------------------------------------
                  HL-Gap            0.0876012 Eh            2.3838 eV

     #   Z        covCN         q      C6AA      Î±(0)
     1   7 N      2.818    -0.088    22.952     7.115
     2   6 C      2.793    -0.010    28.252     8.707
     3   6 C      2.099    -0.072    32.813     9.255
     4   6 C      2.793    -0.010    28.252     8.707
     5   1 H      0.860     0.180     1.216     1.728

Wiberg/Mayer (AO) data.
largest (>0.10) Wiberg bond orders for each atom
          total WBO             WBO to atom ...

molecular dipole:
                 x           y           z       tot (Debye)
 q only:       -0.572      -0.137      -0.108
   full:       -0.973      -0.219      -0.173       2.572

 projected vibrational frequencies (cm-1)
eigval :       -0.00    -0.00     0.00     0.00     0.00     0.00
eigval :      470.78   617.15   800.96   814.42   914.80   987.43
eigval :     1241.13  1403.32  3414.12

   temp. (K)  partition function   enthalpy   heat capacity  entropy
                                   cal/mol     cal/K/mol   cal/K/mol   J/K/mol
  10.00  VIB   1.00                    0.000      0.000     -0.000
         ROT   86.1                   29.809      2.981     11.836
         INT   86.1                   29.809      2.981     11.835
         TR   0.217E+25               49.681      4.968     20.838
         TOT                          79.4904     7.9490    32.6729   136.7033

       T/K    H(0)-H(T)+PV         H(T)/Eh          T*S/Eh         G(T)/Eh
   ------------------------------------------------------------------------
    298.15    0.443799E-02    0.287326E-01    0.292177E-01   -0.485090E-03
    120.00    0.153001E-02    0.258247E-01    0.100359E-01    0.157887E-01
    100.00    0.126969E-02    0.255643E-01    0.812610E-02    0.174382E-01
     80.00    0.101391E-02    0.253085E-01    0.627269E-02    0.190359E-01
     60.00    0.760084E-03    0.250547E-01    0.448554E-02    0.205692E-01
     40.00    0.506704E-03    0.248013E-01    0.278495E-02    0.220164E-01
     20.00    0.253352E-03    0.245480E-01    0.121691E-02    0.233311E-01
     10.00    0.126676E-03    0.244213E-01    0.520675E-03    0.239006E-01 (used)
   ------------------------------------------------------------------------

         :::::::::::::::::::::::::::::::::::::::::::::::::::::
         ::                  THERMODYNAMIC                  ::
         :::::::::::::::::::::::::::::::::::::::::::::::::::::
         :: total free energy          -9.470446499889 Eh   ::
         ::.................................................::
         :: total energy               -9.494347143882 Eh   ::
         :: zero point energy           0.024294643235 Eh   ::
         :: G(RRHO) w/o ZPVE           -0.000393999242 Eh   ::
         :: G(RRHO) contrib.            0.023900643993 Eh   ::
         :::::::::::::::::::::::::::::::::::::::::::::::::::::

           -------------------------------------------------
          | TOTAL ENERGY               -9.494347143882 Eh   |
          | TOTAL ENTHALPY             -9.469925824631 Eh   |
          | TOTAL FREE ENERGY          -9.470446499889 Eh   |
          | GRADIENT NORM               0.000265647533 Eh/Î± |
          | HOMO-LUMO GAP               2.383750054124 eV   |
           -------------------------------------------------

 * finished run on 2020/05/12 at 11:45:01.777
