   * xtb version 6.2.2 (9d81278992624c895f80dd42a50cac0aa55982e2) compiled by '@Darwin' on 04/03/2020
          program call               : xtb --input H1C3N1_16_S_0.input H1C3N1_16_S_0.xyz --ohess --molden --namespace H1C3N1_16_S_0 output.out
          number of atoms            :                     5
          number of electrons        :                    18
          charge                     :                     0
          spin                       :                   0.0

   ID    Z sym.   atoms
    1    6 C      1-3
    2    7 N      4
    3    1 H      5

          :  Hamiltonian                  GFN2-xTB          :
 * total energy  :    -9.4486440 Eh     change        0.3163638E-09 Eh
 * total energy  :    -9.5037313 Eh     change       -0.5508737E-01 Eh
 * total energy  :    -9.5224034 Eh     change       -0.1867202E-01 Eh
 * total energy  :    -9.5447915 Eh     change       -0.2238817E-01 Eh
 * total energy  :    -9.5502473 Eh     change       -0.5455779E-02 Eh
 * total energy  :    -9.5569918 Eh     change       -0.6744518E-02 Eh
 * total energy  :    -9.5602954 Eh     change       -0.3303611E-02 Eh
 * total energy  :    -9.5624710 Eh     change       -0.2175573E-02 Eh
 * total energy  :    -9.5626549 Eh     change       -0.1838964E-03 Eh
 * total energy  :    -9.5633381 Eh     change       -0.6832478E-03 Eh
 * total energy  :    -9.5635131 Eh     change       -0.1749104E-03 Eh
 * total energy  :    -9.5639002 Eh     change       -0.3871805E-03 Eh
 * total energy  :    -9.5641907 Eh     change       -0.2905077E-03 Eh
 * total energy  :    -9.5642096 Eh     change       -0.1884869E-04 Eh
 * total energy  :    -9.5642241 Eh     change       -0.1445823E-04 Eh
 * total energy  :    -9.5642315 Eh     change       -0.7465563E-05 Eh
 * total energy  :    -9.5642334 Eh     change       -0.1877472E-05 Eh
   *** GEOMETRY OPTIMIZATION CONVERGED AFTER 17 ITERATIONS ***

 final structure:
================
5
 xtb: 6.2.2 (9d81278992624c895f80dd42a50cac0aa55982e2)
C         1.87436588064085   -0.42350402332051    0.12265730856842
C         0.69157327236342   -0.03297768232309    0.03032964855584
C        -0.30769874391767    1.15354187137386   -0.14260183176956
N        -0.76253844952688   -0.00729653089762   -0.02946510770755
H        -1.49570195955971   -0.68976263483264    0.01907898235286

          :  Hamiltonian                  GFN2-xTB          :
         :: gradient norm              0.000528162915 Eh/a0 ::
         :: HOMO-LUMO gap              2.741011763943 eV    ::
         :: SCC energy                -9.736279341720 Eh    ::
         :: -> dispersion             -0.002168851133 Eh    ::
         :: repulsion energy           0.172045889475 Eh    ::

    * Orbital Energies and Occupations

         #    Occupation            Energy/Eh            Energy/eV
      -------------------------------------------------------------
         1        2.0000           -0.7295539             -19.8522
         2        2.0000           -0.6486162             -17.6497
         3        2.0000           -0.6348441             -17.2750
         4        2.0000           -0.5938817             -16.1603
         5        2.0000           -0.5665975             -15.4179
         6        2.0000           -0.5012020             -13.6384
         7        2.0000           -0.4439934             -12.0817
         8        2.0000           -0.4074547             -11.0874
         9        2.0000           -0.4054684             -11.0334 (HOMO)
        10                         -0.3047381              -8.2923 (LUMO)
        11                         -0.3020771              -8.2199
        12                         -0.1659144              -4.5148
        13                         -0.0532298              -1.4485
        14                         -0.0332474              -0.9047
        15                          0.0826381               2.2487
        16                          0.5998545              16.3229
        17                          0.9333597              25.3980
      -------------------------------------------------------------
                  HL-Gap            0.1007303 Eh            2.7410 eV

     #   Z        covCN         q      C6AA      Î±(0)
     1   6 C      0.981    -0.205    42.817    10.991
     2   6 C      2.859     0.062    26.605     8.454
     3   6 C      1.882    -0.059    32.733     9.241
     4   7 N      2.678     0.023    20.848     6.781
     5   1 H      0.861     0.179     1.220     1.730

Wiberg/Mayer (AO) data.
largest (>0.10) Wiberg bond orders for each atom
          total WBO             WBO to atom ...

molecular dipole:
                 x           y           z       tot (Debye)
 q only:       -1.149      -0.203      -0.023
   full:       -1.951      -0.557      -0.014       5.157

 projected vibrational frequencies (cm-1)
eigval :       -0.00    -0.00    -0.00    -0.00     0.00     0.00
eigval :      269.43   372.82   532.85   605.66   781.15   869.45
eigval :     1619.41  1948.77  3481.63

   temp. (K)  partition function   enthalpy   heat capacity  entropy
                                   cal/mol     cal/K/mol   cal/K/mol   J/K/mol
  10.00  VIB   1.00                    0.000      0.000     -0.003
         ROT   109.                   29.809      2.981     12.313
         INT   109.                   29.809      2.981     12.310
         TR   0.217E+25               49.681      4.968     20.838
         TOT                          79.4904     7.9490    33.1477   138.6902

       T/K    H(0)-H(T)+PV         H(T)/Eh          T*S/Eh         G(T)/Eh
   ------------------------------------------------------------------------
    298.15    0.507952E-02    0.289574E-01    0.305075E-01   -0.155018E-02
    120.00    0.159677E-02    0.254746E-01    0.102131E-01    0.152615E-01
    100.00    0.130238E-02    0.251802E-01    0.824287E-02    0.169374E-01
     80.00    0.102544E-02    0.249033E-01    0.634741E-02    0.185559E-01
     60.00    0.762209E-03    0.246401E-01    0.453364E-02    0.201064E-01
     40.00    0.506783E-03    0.243846E-01    0.281543E-02    0.215692E-01
     20.00    0.253352E-03    0.241312E-01    0.123208E-02    0.228991E-01
     10.00    0.126676E-03    0.240045E-01    0.528243E-03    0.234763E-01 (used)
   ------------------------------------------------------------------------

         :::::::::::::::::::::::::::::::::::::::::::::::::::::
         ::                  THERMODYNAMIC                  ::
         :::::::::::::::::::::::::::::::::::::::::::::::::::::
         :: total free energy          -9.540757109306 Eh   ::
         ::.................................................::
         :: total energy               -9.564233396823 Eh   ::
         :: zero point energy           0.023877854452 Eh   ::
         :: G(RRHO) w/o ZPVE           -0.000401566935 Eh   ::
         :: G(RRHO) contrib.            0.023476287517 Eh   ::
         :::::::::::::::::::::::::::::::::::::::::::::::::::::

           -------------------------------------------------
          | TOTAL ENERGY               -9.564233396823 Eh   |
          | TOTAL ENTHALPY             -9.540228866355 Eh   |
          | TOTAL FREE ENERGY          -9.540757109306 Eh   |
          | GRADIENT NORM               0.000528177521 Eh/Î± |
          | HOMO-LUMO GAP               2.741011949676 eV   |
           -------------------------------------------------

 * finished run on 2020/05/12 at 11:44:56.562
