   * xtb version 6.2.2 (9d81278992624c895f80dd42a50cac0aa55982e2) compiled by '@Darwin' on 04/03/2020
          program call               : xtb --input H1O1_0_S_3.input H1O1_0_S_3.xyz --ohess --molden --namespace H1O1_0_S_3 output.out
          number of atoms            :                     2
          number of electrons        :                     7
          charge                     :                     0
          spin                       :                   1.5

   ID    Z sym.   atoms
    1    8 O      1
    2    1 H      2

          :  Hamiltonian                  GFN2-xTB          :
 * total energy  :    -3.7822422 Eh     change        0.1457323E-10 Eh
 * total energy  :    -4.1053761 Eh     change       -0.3231340E+00 Eh
 * total energy  :    -4.1213589 Eh     change       -0.1598272E-01 Eh
 * total energy  :    -4.1439682 Eh     change       -0.2260934E-01 Eh
 * total energy  :    -4.1524012 Eh     change       -0.8433006E-02 Eh
 * total energy  :    -4.1570073 Eh     change       -0.4606052E-02 Eh
 * total energy  :    -4.1592391 Eh     change       -0.2231863E-02 Eh
 * total energy  :    -4.1603892 Eh     change       -0.1150056E-02 Eh
 * total energy  :    -4.1609688 Eh     change       -0.5796679E-03 Eh
 * total energy  :    -4.1613303 Eh     change       -0.3614064E-03 Eh
 * total energy  :    -4.1613999 Eh     change       -0.6965333E-04 Eh
 * total energy  :    -4.1614332 Eh     change       -0.3332256E-04 Eh
 * total energy  :    -4.1614529 Eh     change       -0.1962635E-04 Eh
 * total energy  :    -4.1614657 Eh     change       -0.1287274E-04 Eh
 * total energy  :    -4.1614748 Eh     change       -0.9031454E-05 Eh
 * total energy  :    -4.1614814 Eh     change       -0.6638619E-05 Eh
 * total energy  :    -4.1614864 Eh     change       -0.5050053E-05 Eh
 * total energy  :    -4.1614904 Eh     change       -0.3944317E-05 Eh
   *** GEOMETRY OPTIMIZATION CONVERGED AFTER 18 ITERATIONS ***

 final structure:
================
2
 xtb: 6.2.2 (9d81278992624c895f80dd42a50cac0aa55982e2)
O         1.51522918191835    0.00000000000000    0.00000000000000
H        -1.51522918191835    0.00000000000000    0.00000000000000

          :  Hamiltonian                  GFN2-xTB          :
         :: gradient norm              0.000148681473 Eh/a0 ::
         :: HOMO-LUMO gap              0.000000000000 eV    ::
         :: SCC energy                -4.161490389788 Eh    ::
         :: -> dispersion             -0.000124385485 Eh    ::
         :: repulsion energy           0.000000000000 Eh    ::

    * Orbital Energies and Occupations

         #    Occupation            Energy/Eh            Energy/eV
      -------------------------------------------------------------
         1        2.0000           -0.7437330             -20.2380
         2        1.9240           -0.5737119             -15.6115
         3        1.0380           -0.5682676             -15.4633
         4        1.0380           -0.5682676             -15.4633
         5        1.0000           -0.3904095             -10.6236 (HOMO)
      -------------------------------------------------------------
                  HL-Gap            0.3904095 Eh           10.6236 eV

     #   Z        covCN         q      C6AA      α(0)
     1   8 O      0.000     0.001    15.557     5.195
     2   1 H      0.000    -0.001     7.654     5.059

Wiberg/Mayer (AO) data.
largest (>0.10) Wiberg bond orders for each atom
          total WBO             WBO to atom ...

molecular dipole:
                 x           y           z       tot (Debye)
 q only:        0.004      -0.000      -0.000
   full:        0.004      -0.000      -0.000       0.011

   temp. (K)  partition function   enthalpy   heat capacity  entropy
                                   cal/mol     cal/K/mol   cal/K/mol   J/K/mol
  10.00  VIB   1.00                    0.000      0.000     -0.033
         ROT   3.59                   19.873      1.987      4.527
         INT   3.59                   19.873      1.988      4.494
         TR   0.417E+24               49.681      4.968     17.563
         TOT                          69.5543     6.9557    22.0576    92.2889

       T/K    H(0)-H(T)+PV         H(T)/Eh          T*S/Eh         G(T)/Eh
   ------------------------------------------------------------------------
    298.15    0.404197E-02    0.426671E-02    0.233467E-01   -0.190800E-01
    120.00    0.152868E-02    0.175343E-02    0.786809E-02   -0.611467E-02
    100.00    0.125182E-02    0.147656E-02    0.630578E-02   -0.482922E-02
     80.00    0.978549E-03    0.120329E-02    0.480196E-02   -0.359866E-02
     60.00    0.711627E-03    0.936369E-03    0.337206E-02   -0.243569E-02
     40.00    0.456681E-03    0.681424E-03    0.204186E-02   -0.136043E-02
     20.00    0.222055E-03    0.446798E-03    0.858382E-03   -0.411584E-03
     10.00    0.110842E-03    0.335584E-03    0.351510E-03   -0.159255E-04 (used)
   ------------------------------------------------------------------------

         :::::::::::::::::::::::::::::::::::::::::::::::::::::
         ::                  THERMODYNAMIC                  ::
         :::::::::::::::::::::::::::::::::::::::::::::::::::::
         :: total free energy          -4.161506315338 Eh   ::
         ::.................................................::
         :: total energy               -4.161490389795 Eh   ::
         :: zero point energy           0.000224742492 Eh   ::
         :: G(RRHO) w/o ZPVE           -0.000240668035 Eh   ::
         :: G(RRHO) contrib.           -0.000015925543 Eh   ::
         :::::::::::::::::::::::::::::::::::::::::::::::::::::

           -------------------------------------------------
          | TOTAL ENERGY               -4.161490389795 Eh   |
          | TOTAL ENTHALPY             -4.161154805482 Eh   |
          | TOTAL FREE ENERGY          -4.161506315338 Eh   |
          | GRADIENT NORM               0.000148681471 Eh/α |
          | HOMO-LUMO GAP              10.623583749871 eV   |
           -------------------------------------------------

 * finished run on 2020/05/12 at 11:44:43.689
