 Gaussian 16, Revision B.01,

 --------------------------------------------------------
 #P M062X/cc-pvtz nosymm opt(noeigentest) optcyc=120 freq
 --------------------------------------------------------

 -----
 Title
 -----
 Symbolic Z-matrix:
 Charge =  0 Multiplicity = 2

 SCF Done:  E(UM062X) =  -118.429405096     A.U. after   14 cycles
 SCF Done:  E(UM062X) =  -118.439429697     A.U. after   12 cycles
 SCF Done:  E(UM062X) =  -118.441734270     A.U. after   12 cycles
 SCF Done:  E(UM062X) =  -118.442075200     A.U. after   12 cycles
 SCF Done:  E(UM062X) =  -118.442107543     A.U. after   10 cycles
 SCF Done:  E(UM062X) =  -118.442117875     A.U. after   10 cycles
 SCF Done:  E(UM062X) =  -118.442118539     A.U. after    8 cycles
 SCF Done:  E(UM062X) =  -118.442119881     A.U. after    8 cycles
 SCF Done:  E(UM062X) =  -118.442121409     A.U. after   10 cycles
 SCF Done:  E(UM062X) =  -118.442121727     A.U. after    8 cycles
 Optimization completed.
    -- Stationary point found.
 Normal termination of Gaussian 16 at Mon Sep 28 10:55:12 2020.

 -------------------------------------------------------------------
 #P Geom=AllCheck Guess=TCheck SCRF=Check GenChk UM062X/CC-pVTZ Freq
 -------------------------------------------------------------------

 Structure from the checkpoint file:  "input.chk"
 -----
 Title
 -----
 Charge =  0 Multiplicity = 2

 SCF Done:  E(UM062X) =  -118.442121727     A.U. after    1 cycles

  Exact polarizability:  37.815   0.674  32.327  -2.392   0.838  40.361
 Approx polarizability:  40.757   0.883  38.533  -0.138   0.364  42.655

                      1                      2                      3
                      A                      A                      A
 Frequencies --    106.3535               255.1202               374.0035
 Red. masses --      1.0344                 1.1065                 1.8860
 Frc consts  --      0.0069                 0.0424                 0.1554
 IR Inten    --      0.4390                 0.0236                 3.3072

                      4                      5                      6
                      A                      A                      A
 Frequencies --    457.0240               755.6320               895.3538
 Red. masses --      1.3073                 1.1717                 1.7524
 Frc consts  --      0.1609                 0.3942                 0.8277
 IR Inten    --     42.6123                 1.0916                 0.2179

                      7                      8                      9
                      A                      A                      A
 Frequencies --    928.8082              1053.1283              1101.4589
 Red. masses --      1.3856                 1.3827                 2.2546
 Frc consts  --      0.7043                 0.9036                 1.6116
 IR Inten    --      1.4539                 0.6684                 0.1766

                     10                     11                     12
                      A                      A                      A
 Frequencies --   1178.1460              1272.8518              1364.7615
 Red. masses --      1.8535                 1.1943                 1.4780
 Frc consts  --      1.5158                 1.1400                 1.6220
 IR Inten    --      0.2520                 0.1406                 1.7684

                     13                     14                     15
                      A                      A                      A
 Frequencies --   1411.0344              1469.6806              1474.5422
 Red. masses --      1.2821                 1.1856                 1.0693
 Frc consts  --      1.5040                 1.5088                 1.3699
 IR Inten    --      2.7158                 2.1273                 2.0619

                     16                     17                     18
                      A                      A                      A
 Frequencies --   1502.0579              1509.2128              2985.6306
 Red. masses --      1.0389                 1.0624                 1.0724
 Frc consts  --      1.3810                 1.4257                 5.6322
 IR Inten    --      7.0634                 3.7966                24.5997

                     19                     20                     21
                      A                      A                      A
 Frequencies --   3059.7335              3063.0129              3130.3943
 Red. masses --      1.0776                 1.0425                 1.1022
 Frc consts  --      5.9440                 5.7629                 6.3639
 IR Inten    --      9.8550                28.3005                28.5923

                     22                     23                     24
                      A                      A                      A
 Frequencies --   3139.9928              3166.7935              3269.9373
 Red. masses --      1.1024                 1.0513                 1.1186
 Frc consts  --      6.4039                 6.2117                 7.0467
 IR Inten    --     23.5888                12.1084                10.0931

 - Thermochemistry -
 -------------------
 Temperature   298.150 Kelvin.  Pressure   1.00000 Atm.
 Atom     1 has atomic number  6 and mass  12.00000

 Molecular mass:    43.05478 amu.
 Principal axes and moments of inertia in atomic units:
                           1         2         3
     Eigenvalues --    54.95045 198.20036 229.45295
           X           -0.61823   0.78396  -0.05658
           Y            0.07204   0.12820   0.98913
           Z            0.78269   0.60744  -0.13573
 This molecule is an asymmetric top.
 Rotational symmetry number  1.
 Rotational temperatures (Kelvin)      1.57622     0.43700     0.37748
 Rotational constants (GHZ):          32.84307     9.10564     7.86541
 Zero-point vibrational energy     232821.2 (Joules/Mol)
                                   55.64560 (Kcal/Mol)
 Warning -- explicit consideration of   4 degrees of freedom as
           vibrations may cause significant error
 Vibrational temperatures:    153.02   367.06   538.11   657.56  1087.19
          (Kelvin)           1288.21  1336.35  1515.22  1584.75  1695.09
                             1831.35  1963.59  2030.16  2114.54  2121.54
                             2161.13  2171.42  4295.66  4402.27  4406.99
                             4503.94  4517.75  4556.31  4704.71

 Zero-point correction=                           0.088677 (Hartree/Particle)
 Thermal correction to Energy=                    0.093622
 Thermal correction to Enthalpy=                  0.094566
 Thermal correction to Gibbs Free Energy=         0.061922
 Sum of electronic and zero-point Energies=           -118.353445
 Sum of electronic and thermal Energies=              -118.348500
 Sum of electronic and thermal Enthalpies=            -118.347555
 Sum of electronic and thermal Free Energies=         -118.380199

                     E (Thermal)             CV                S
                      KCal/Mol        Cal/Mol-Kelvin    Cal/Mol-Kelvin
 Total                   58.749             15.743             68.705
 Electronic               0.000              0.000              1.377
 Translational            0.889              2.981             37.206
 Rotational               0.889              2.981             22.440
 Vibrational             56.971              9.781              7.682
 Vibration     1          0.605              1.944              3.334
 Vibration     2          0.665              1.754              1.695
 Vibration     3          0.745              1.525              1.063
 Vibration     4          0.815              1.345              0.775

 Optimization completed.
    -- Stationary point found.
 Normal termination of Gaussian 16 at Mon Sep 28 10:59:16 2020.
 Gaussian 16:  ES64L-G16RevB.01 20-Dec-2017

 -----------------------------------------------
 #P CCSD(T)/aug-cc-pvtz geom=allcheck guess=read
 -----------------------------------------------

 Structure from the checkpoint file:  "input.chk"
 -----
 Title
 -----
 Charge =  0 Multiplicity = 2

                         Standard orientation:
 ---------------------------------------------------------------------
 Center     Atomic      Atomic             Coordinates (Angstroms)
 Number     Number       Type             X           Y           Z
 ---------------------------------------------------------------------
      1          6           0        1.291011   -0.296188   -0.031881
      2          6           0        0.079046    0.559196    0.047442
      3          1           0        2.256830    0.125042   -0.265384
      4          1           0        1.255786   -1.322290    0.305162
      5          6           0       -1.215815   -0.243828   -0.034771
      6          1           0       -1.272616   -0.785854   -0.978705
      7          1           0        0.084523    1.131885    0.985494
      8          1           0        0.104620    1.311117   -0.745776
      9          1           0       -1.264107   -0.975592    0.772472
     10          1           0       -2.090491    0.400618    0.041998
 ---------------------------------------------------------------------

 SCF Done:  E(UHF) =  -117.676538453     A.U. after   14 cycles
 E2 =    -0.5116817000D+00 EUMP2 =    -0.11818822015264D+03
 CCSD(T)
 CCSD(T)= -0.11824998629D+03

 The electronic state is 2-A.
 Alpha  occ. eigenvalues --  -11.22544 -11.22111 -11.21170  -1.06372  -0.92775
 Alpha  occ. eigenvalues --   -0.80175  -0.62455  -0.60977  -0.56467  -0.50662
 Alpha  occ. eigenvalues --   -0.49811  -0.48530  -0.34741
 Alpha virt. eigenvalues --    0.03190   0.03924   0.04111   0.04360   0.06095
 Alpha virt. eigenvalues --    0.06393   0.06559   0.10163   0.10475   0.12054
 Alpha virt. eigenvalues --    0.12393   0.13204   0.14196   0.14273   0.14675

  Beta  occ. eigenvalues --  -11.22422 -11.21115 -11.20213  -1.04475  -0.88890
  Beta  occ. eigenvalues --   -0.76998  -0.61417  -0.59594  -0.55661  -0.49306
  Beta  occ. eigenvalues --   -0.48851  -0.48082
  Beta virt. eigenvalues --    0.03224   0.03950   0.04126   0.04291   0.06110
  Beta virt. eigenvalues --    0.06402   0.06555   0.08434   0.10215   0.12048
  Beta virt. eigenvalues --    0.12446   0.13002   0.13924   0.14311   0.14699

 Mulliken charges and spin densities:
               1          2
     1  C   -1.068365   1.207337
     2  C   -0.204379  -0.188200
     3  H    0.370347  -0.071918
     4  H    0.450386  -0.048598
     5  C   -0.896273   0.024258
     6  H    0.289084  -0.003956
     7  H    0.247624   0.061628
     8  H    0.264775   0.023289
     9  H    0.271014  -0.002832
    10  H    0.275789  -0.001006
 Sum of Mulliken charges =  -0.00000   1.00000

 Dipole moment (field-independent basis, Debye):
    X=             -0.1202    Y=              0.1873    Z=              0.1189  Tot=              0.2523
 Quadrupole moment (field-independent basis, Debye-Ang):
   XX=            -21.3913   YY=            -20.8811   ZZ=            -21.6560
   XY=              0.1002   XZ=             -0.0728   YZ=             -0.4792

 22\CCSD=-118.229703\CCSD(T)=-118.2499863\S2=0.763161\S2-1=0.753441\S2A
 Normal termination of Gaussian 16 at Mon Sep 28 12:34:01 2020.
