   * xtb version 6.2.2 (9d81278992624c895f80dd42a50cac0aa55982e2) compiled by '@Darwin' on 04/03/2020
          program call               : xtb --input N1O1_0_S_1.input N1O1_0_S_1.xyz --ohess --molden --namespace N1O1_0_S_1 output.out
          number of atoms            :                     2
          number of electrons        :                    11
          charge                     :                     0
          spin                       :                   0.5

   ID    Z sym.   atoms
    1    8 O      1
    2    7 N      2

          :  Hamiltonian                  GFN2-xTB          :
 * total energy  :    -6.7797510 Eh     change       -0.1577227E-10 Eh
 * total energy  :    -6.8260255 Eh     change       -0.4627442E-01 Eh
 * total energy  :    -6.8255712 Eh     change        0.4542686E-03 Eh
 * total energy  :    -6.8283011 Eh     change       -0.2729912E-02 Eh
 * total energy  :    -6.8283404 Eh     change       -0.3927468E-04 Eh
 * total energy  :    -6.8283408 Eh     change       -0.4547420E-06 Eh
   *** GEOMETRY OPTIMIZATION CONVERGED AFTER 6 ITERATIONS ***

 final structure:
================
2
 xtb: 6.2.2 (9d81278992624c895f80dd42a50cac0aa55982e2)
O         0.57757246120283    0.00000000000000    0.00000000000000
N        -0.57757246120283    0.00000000000000    0.00000000000000

          :  Hamiltonian                  GFN2-xTB          :
         :: gradient norm              0.000864273183 Eh/a0 ::
         :: HOMO-LUMO gap              0.000000012998 eV    ::
         :: SCC energy                -6.857778586545 Eh    ::
         :: -> dispersion             -0.000224192563 Eh    ::
         :: repulsion energy           0.029437763199 Eh    ::

    * Orbital Energies and Occupations

         #    Occupation            Energy/Eh            Energy/eV
      -------------------------------------------------------------
         1        2.0000           -0.8003231             -21.7779
         2        2.0000           -0.6713159             -18.2674
         3        2.0000           -0.6262266             -17.0405
         4        2.0000           -0.6262266             -17.0405
         5        2.0000           -0.5099847             -13.8774
         6        0.5000           -0.3557153              -9.6795 (HOMO)
         7        0.5000           -0.3557153              -9.6795 (LUMO)
         8                          0.4206620              11.4468
      -------------------------------------------------------------
                  HL-Gap            0.0000000 Eh            0.0000 eV

     #   Z        covCN         q      C6AA      Î±(0)
     1   8 O      0.923    -0.063    15.962     5.358
     2   7 N      0.923     0.063    20.087     6.476

Wiberg/Mayer (AO) data.
largest (>0.10) Wiberg bond orders for each atom
          total WBO             WBO to atom ...

molecular dipole:
                 x           y           z       tot (Debye)
 q only:       -0.138       0.000       0.000
   full:        0.067      -0.000      -0.000       0.170

   temp. (K)  partition function   enthalpy   heat capacity  entropy
                                   cal/mol     cal/K/mol   cal/K/mol   J/K/mol
  10.00  VIB   1.00                    0.000      0.000     -0.000
         ROT   4.11                   19.873      1.987      4.796
         INT   4.11                   19.873      1.987      4.796
         TR   0.977E+24               49.681      4.968     19.255
         TOT                          69.5541     6.9554    24.0503   100.6263

       T/K    H(0)-H(T)+PV         H(T)/Eh          T*S/Eh         G(T)/Eh
   ------------------------------------------------------------------------
    298.15    0.330546E-02    0.775443E-02    0.226436E-01   -0.148891E-01
    120.00    0.133010E-02    0.577907E-02    0.790320E-02   -0.212413E-02
    100.00    0.110842E-02    0.555739E-02    0.638398E-02   -0.826594E-03
     80.00    0.886732E-03    0.533570E-02    0.490939E-02    0.426319E-03
     60.00    0.665049E-03    0.511402E-02    0.349078E-02    0.162324E-02
     40.00    0.443366E-03    0.489234E-02    0.214748E-02    0.274486E-02
     20.00    0.221683E-03    0.467066E-02    0.920136E-03    0.375052E-02
     10.00    0.110842E-03    0.455981E-02    0.383265E-03    0.417655E-02 (used)
   ------------------------------------------------------------------------

         :::::::::::::::::::::::::::::::::::::::::::::::::::::
         ::                  THERMODYNAMIC                  ::
         :::::::::::::::::::::::::::::::::::::::::::::::::::::
         :: total free energy          -6.824164274137 Eh   ::
         ::.................................................::
         :: total energy               -6.828340823349 Eh   ::
         :: zero point energy           0.004448972877 Eh   ::
         :: G(RRHO) w/o ZPVE           -0.000272423666 Eh   ::
         :: G(RRHO) contrib.            0.004176549211 Eh   ::
         :::::::::::::::::::::::::::::::::::::::::::::::::::::

           -------------------------------------------------
          | TOTAL ENERGY               -6.828340823349 Eh   |
          | TOTAL ENTHALPY             -6.823781008958 Eh   |
          | TOTAL FREE ENERGY          -6.824164274137 Eh   |
          | GRADIENT NORM               0.000863964342 Eh/Î± |
          | HOMO-LUMO GAP               0.000000002507 eV   |
           -------------------------------------------------

 * finished run on 2020/05/12 at 11:44:29.655
