   * xtb version 6.2.2 (9d81278992624c895f80dd42a50cac0aa55982e2) compiled by '@Darwin' on 04/03/2020
          program call               : xtb --input C3N1_10_S_3.input C3N1_10_S_3.xyz --ohess --molden --namespace C3N1_10_S_3 output.out
          number of atoms            :                     4
          number of electrons        :                    17
          charge                     :                     0
          spin                       :                   1.5

   ID    Z sym.   atoms
    1    6 C      1-3
    2    7 N      4

          :  Hamiltonian                  GFN2-xTB          :
 * total energy  :    -8.8493614 Eh     change        0.5493028E-09 Eh
 * total energy  :    -8.8507272 Eh     change       -0.1365782E-02 Eh
 * total energy  :    -8.8511126 Eh     change       -0.3853688E-03 Eh
 * total energy  :    -8.8511152 Eh     change       -0.2684453E-05 Eh
   *** GEOMETRY OPTIMIZATION CONVERGED AFTER 4 ITERATIONS ***

 final structure:
================
4
 xtb: 6.2.2 (9d81278992624c895f80dd42a50cac0aa55982e2)
C         0.77056464958190   -0.00006652165980   -0.48064357830444
C        -0.04720582854288    0.75177389823226    0.50733490299060
C        -0.71341024398450   -0.03931501309366   -0.56060608733470
N        -0.00994857705452   -0.71239236347880    0.53391576264853

          :  Hamiltonian                  GFN2-xTB          :
         :: gradient norm              0.000695460574 Eh/a0 ::
         :: HOMO-LUMO gap              8.434404145056 eV    ::
         :: SCC energy                -8.935196537162 Eh    ::
         :: -> dispersion             -0.001671439768 Eh    ::
         :: repulsion energy           0.084081292031 Eh    ::

    * Orbital Energies and Occupations

         #    Occupation            Energy/Eh            Energy/eV
      -------------------------------------------------------------
         1        2.0000           -0.7733085             -21.0428
         2        2.0000           -0.6287101             -17.1081
         3        2.0000           -0.6287101             -17.1081
         4        2.0000           -0.6221074             -16.9284
         5        1.9999           -0.4728241             -12.8662
         6        1.9999           -0.4728207             -12.8661
         7        1.9888           -0.4682411             -12.7415
         8        1.0055           -0.4590499             -12.4914
Molecule has the following symmetry elements: (C3) 3*(sigma)
It seems to be the C3v point group
         9        1.0055           -0.4590473             -12.4913
        10        1.0003           -0.4562409             -12.4149 (HOMO)
        11                         -0.1462823              -3.9805 (LUMO)
        12                         -0.1462776              -3.9804
        13                         -0.1270986              -3.4585
        14                          0.0448515               1.2205
        15                          0.2012478               5.4762
        16                          0.2012567               5.4765
      -------------------------------------------------------------
                  HL-Gap            0.3099586 Eh            8.4344 eV

     #   Z        covCN         q      C6AA      Î±(0)
     1   6 C      2.862     0.063    26.584     8.451
     2   6 C      2.862     0.063    26.583     8.451
     3   6 C      2.862     0.063    26.583     8.451
     4   7 N      2.720    -0.189    25.096     7.440

Wiberg/Mayer (AO) data.
largest (>0.10) Wiberg bond orders for each atom
          total WBO             WBO to atom ...

molecular dipole:
                 x           y           z       tot (Debye)
 q only:        0.005       0.339      -0.254
   full:        0.000       0.034      -0.025       0.107

 projected vibrational frequencies (cm-1)
eigval :       -0.00    -0.00    -0.00     0.00     0.00     0.00
eigval :    -1133.14 -1132.95   864.70   864.77  1046.69  1477.90

   temp. (K)  partition function   enthalpy   heat capacity  entropy
                                   cal/mol     cal/K/mol   cal/K/mol   J/K/mol
  10.00  VIB   1.00                    0.000      0.000     -0.000
         ROT   22.1                   29.809      2.981      9.137
         INT   22.1                   29.809      2.981      9.137
         TR   0.210E+25               49.681      4.968     20.778
         TOT                          79.4904     7.9490    29.9154   125.1661

       T/K    H(0)-H(T)+PV         H(T)/Eh          T*S/Eh         G(T)/Eh
   ------------------------------------------------------------------------
    298.15    0.393628E-02    0.136277E-01    0.272279E-01   -0.136002E-01
    120.00    0.152038E-02    0.112118E-01    0.949728E-02    0.171454E-02
    100.00    0.126679E-02    0.109582E-01    0.768330E-02    0.327493E-02
     80.00    0.101341E-02    0.107048E-01    0.592055E-02    0.478430E-02
     60.00    0.760056E-03    0.104515E-01    0.422182E-02    0.622967E-02
     40.00    0.506704E-03    0.101981E-01    0.260916E-02    0.758898E-02
     20.00    0.253352E-03    0.994479E-02    0.112902E-02    0.881577E-02
     10.00    0.126676E-03    0.981811E-02    0.476733E-03    0.934138E-02 (used)
   ------------------------------------------------------------------------

         :::::::::::::::::::::::::::::::::::::::::::::::::::::
         ::                  THERMODYNAMIC                  ::
         :::::::::::::::::::::::::::::::::::::::::::::::::::::
         :: total free energy          -8.841773858916 Eh   ::
         ::.................................................::
         :: total energy               -8.851115239928 Eh   ::
         :: zero point energy           0.009691437574 Eh   ::
         :: G(RRHO) w/o ZPVE           -0.000350056562 Eh   ::
         :: G(RRHO) contrib.            0.009341381012 Eh   ::
         :::::::::::::::::::::::::::::::::::::::::::::::::::::

           -------------------------------------------------
          | TOTAL ENERGY               -8.851115239928 Eh   |
          | TOTAL ENTHALPY             -8.841297126338 Eh   |
          | TOTAL FREE ENERGY          -8.841773858916 Eh   |
          | GRADIENT NORM               0.000695470186 Eh/Î± |
          | HOMO-LUMO GAP               8.434403958294 eV   |
           -------------------------------------------------

 * finished run on 2020/05/12 at 11:45:07.081
