 Gaussian 16, Revision B.01,

 --------------------------------------------------------
 #P M062X/cc-pvtz nosymm opt(noeigentest) optcyc=120 freq
 --------------------------------------------------------

 -----
 Title
 -----
 Symbolic Z-matrix:
 Charge =  0 Multiplicity = 1

 SCF Done:  E(RM062X) =  -270.167948941     A.U. after   13 cycles
 SCF Done:  E(RM062X) =  -270.182729238     A.U. after   13 cycles
 SCF Done:  E(RM062X) =  -270.183761012     A.U. after   15 cycles
 SCF Done:  E(RM062X) =  -270.181419364     A.U. after   15 cycles
 SCF Done:  E(RM062X) =  -270.186087605     A.U. after   12 cycles
 SCF Done:  E(RM062X) =  -270.186151974     A.U. after   11 cycles
 SCF Done:  E(RM062X) =  -270.186188216     A.U. after   11 cycles
 SCF Done:  E(RM062X) =  -270.186188932     A.U. after    8 cycles
 SCF Done:  E(RM062X) =  -270.186189914     A.U. after    7 cycles
 SCF Done:  E(RM062X) =  -270.186190164     A.U. after    8 cycles
 SCF Done:  E(RM062X) =  -270.186192827     A.U. after   11 cycles
 SCF Done:  E(RM062X) =  -270.186193827     A.U. after   10 cycles
 SCF Done:  E(RM062X) =  -270.186194645     A.U. after   11 cycles
 SCF Done:  E(RM062X) =  -270.186198045     A.U. after   12 cycles
 SCF Done:  E(RM062X) =  -270.186199798     A.U. after    8 cycles
 SCF Done:  E(RM062X) =  -270.186200383     A.U. after    8 cycles
 SCF Done:  E(RM062X) =  -270.186200354     A.U. after    8 cycles
 SCF Done:  E(RM062X) =  -270.186200645     A.U. after    8 cycles
 Optimization completed on the basis of negligible forces.
    -- Stationary point found.
 Normal termination of Gaussian 16 at Mon Sep 28 11:27:27 2020.

 -------------------------------------------------------------------
 #P Geom=AllCheck Guess=TCheck SCRF=Check GenChk RM062X/CC-pVTZ Freq
 -------------------------------------------------------------------

 Structure from the checkpoint file:  "input.chk"
 -----
 Title
 -----
 Charge =  0 Multiplicity = 1

 SCF Done:  E(RM062X) =  -270.186200645     A.U. after    1 cycles

  Exact polarizability:  58.421  -0.397  44.194  17.758  -1.066 165.158
 Approx polarizability:  74.204  -0.483  56.295  19.120  -1.119 184.502

                      1                      2                      3
                      A                      A                      A
 Frequencies --     36.3709                86.2961                86.3300
 Red. masses --      1.1354                 3.6809                 3.8698
 Frc consts  --      0.0009                 0.0162                 0.0170
 IR Inten    --      0.0039                 2.3944                 2.1082

                      4                      5                      6
                      A                      A                      A
 Frequencies --    199.4182               242.6286               324.7321
 Red. masses --      4.0985                 3.2198                 4.0353
 Frc consts  --      0.0960                 0.1117                 0.2507
 IR Inten    --      0.3019                 1.7476                 6.7100

                      7                      8                      9
                      A                      A                      A
 Frequencies --    402.0132               492.9177               526.3675
 Red. masses --      3.9274                 6.2442                 5.0562
 Frc consts  --      0.3740                 0.8939                 0.8254
 IR Inten    --      5.5766                 2.2809                10.3490

                     10                     11                     12
                      A                      A                      A
 Frequencies --    538.9159               690.2851               720.5321
 Red. masses --      6.8808                 1.3017                 1.2778
 Frc consts  --      1.1774                 0.3654                 0.3909
 IR Inten    --      2.8296                43.7903                40.7479

                     13                     14                     15
                      A                      A                      A
 Frequencies --    829.1021               892.0219               991.8474
 Red. masses --      4.4065                 2.0616                 1.0877
 Frc consts  --      1.7847                 0.9665                 0.6305
 IR Inten    --      6.8223                 0.1679                45.2245

                     16                     17                     18
                      A                      A                      A
 Frequencies --   1035.6305              1050.7096              1055.8208
 Red. masses --      3.8927                 1.4128                 1.4166
 Frc consts  --      2.4599                 0.9190                 0.9304
 IR Inten    --      2.5388                 1.4652                 2.2612

                     19                     20                     21
                      A                      A                      A
 Frequencies --   1208.6244              1294.8680              1326.9007
 Red. masses --      2.8796                 1.4399                 1.3435
 Frc consts  --      2.4784                 1.4224                 1.3937
 IR Inten    --      2.9680                 2.0717                 0.0640

                     22                     23                     24
                      A                      A                      A
 Frequencies --   1413.3391              1481.7051              1482.1267
 Red. masses --      1.2812                 1.0385                 1.0387
 Frc consts  --      1.5078                 1.3434                 1.3444
 IR Inten    --      6.7627                 7.9507                 7.7134

                     25                     26                     27
                      A                      A                      A
 Frequencies --   1697.3707              2245.0004              2380.2794
 Red. masses --      6.3892                 5.9526                11.8283
 Frc consts  --     10.8455                17.6761                39.4845
 IR Inten    --      6.3560                 7.3820                29.8438

                     28                     29                     30
                      A                      A                      A
 Frequencies --   3067.6532              3133.1997              3139.5666
 Red. masses --      1.0342                 1.1013                 1.1017
 Frc consts  --      5.7342                 6.3699                 6.3983
 IR Inten    --     16.3880                 3.2931                 3.4621

                     31                     32                     33
                      A                      A                      A
 Frequencies --   3187.7599              3197.5963              3488.5898
 Red. masses --      1.0920                 1.0867                 1.1643
 Frc consts  --      6.5381                 6.5464                 8.3489
 IR Inten    --      2.1457                 8.7969                97.7755

 - Thermochemistry -
 -------------------
 Temperature   298.150 Kelvin.  Pressure   1.00000 Atm.
 Atom     1 has atomic number  6 and mass  12.00000

 Molecular mass:    90.04695 amu.
 Principal axes and moments of inertia in atomic units:
                           1         2         3
     Eigenvalues --    54.022152129.628492172.44195
           X            0.15758   0.98727   0.02178
           Y           -0.00952  -0.02053   0.99974
           Z            0.98746  -0.15775   0.00616
 This molecule is an asymmetric top.
 Rotational symmetry number  1.
 Rotational temperatures (Kelvin)      1.60330     0.04067     0.03987
 Rotational constants (GHZ):          33.40743     0.84744     0.83074
 Zero-point vibrational energy     262858.6 (Joules/Mol)
                                   62.82470 (Kcal/Mol)
 Warning -- explicit consideration of  10 degrees of freedom as
           vibrations may cause significant error
 Vibrational temperatures:     52.33   124.16   124.21   286.92   349.09
          (Kelvin)            467.22   578.41   709.20   757.33   775.38
                              993.17  1036.69  1192.89  1283.42  1427.05
                             1490.04  1511.74  1519.09  1738.94  1863.03
                             1909.11  2033.48  2131.84  2132.45  2442.14
                             3230.05  3424.69  4413.67  4507.98  4517.14
                             4586.48  4600.63  5019.30

 Zero-point correction=                           0.100118 (Hartree/Particle)
 Thermal correction to Energy=                    0.108259
 Thermal correction to Enthalpy=                  0.109203
 Thermal correction to Gibbs Free Energy=         0.067033
 Sum of electronic and zero-point Energies=           -270.086083
 Sum of electronic and thermal Energies=              -270.077942
 Sum of electronic and thermal Enthalpies=            -270.076997
 Sum of electronic and thermal Free Energies=         -270.119167

                     E (Thermal)             CV                S
                      KCal/Mol        Cal/Mol-Kelvin    Cal/Mol-Kelvin
 Total                   67.934             27.105             88.754
 Electronic               0.000              0.000              0.000
 Translational            0.889              2.981             39.405
 Rotational               0.889              2.981             27.016
 Vibrational             66.156             21.143             22.332
 Vibration     1          0.594              1.982              5.448
 Vibration     2          0.601              1.959              3.742
 Vibration     3          0.601              1.959              3.742
 Vibration     4          0.638              1.841              2.138
 Vibration     5          0.659              1.775              1.784
 Vibration     6          0.709              1.626              1.286
 Vibration     7          0.768              1.466              0.955
 Vibration     8          0.849              1.266              0.676
 Vibration     9          0.881              1.192              0.595
 Vibration    10          0.894              1.164              0.568

 Optimization completed on the basis of negligible forces.
    -- Stationary point found.
 Normal termination of Gaussian 16 at Mon Sep 28 11:34:25 2020.
 Gaussian 16:  ES64L-G16RevB.01 20-Dec-2017

 -----------------------------------------------
 #P CCSD(T)/aug-cc-pvtz geom=allcheck guess=read
 -----------------------------------------------

 Structure from the checkpoint file:  "input.chk"
 -----
 Title
 -----
 Charge =  0 Multiplicity = 1

                         Standard orientation:
 ---------------------------------------------------------------------
 Center     Atomic      Atomic             Coordinates (Angstroms)
 Number     Number       Type             X           Y           Z
 ---------------------------------------------------------------------
      1          6           0       -3.705132   -0.172009    0.000206
      2          6           0       -1.081937    0.256586   -0.000269
      3          6           0        1.245072   -0.447548   -0.000165
      4          6           0        2.641084   -0.176063    0.000017
      5          1           0        0.943298   -1.487577   -0.000474
      6          6           0        3.823421    0.028238    0.000258
      7          1           0        4.869150    0.215414    0.000436
      8          1           0       -4.251508    0.764366   -0.104674
      9          1           0       -4.014790   -0.646395    0.931234
     10          6           0        0.315211    0.515384   -0.000102
     11          1           0       -3.986116   -0.827070   -0.824035
     12          6           0       -2.268855    0.066758   -0.000387
     13          1           0        0.626781    1.553181    0.000161
 ---------------------------------------------------------------------

 SCF Done:  E(RHF) =  -268.525515901     A.U. after   13 cycles
 E2 =    -0.1099491161D+01 EUMP2 =    -0.26962500706259D+03
 CCSD(T)
 CCSD(T)= -0.26971453750D+03

 The electronic state is 1-A.
 Alpha  occ. eigenvalues --  -11.26940 -11.26518 -11.25257 -11.24087 -11.23811
 Alpha  occ. eigenvalues --  -11.23135 -11.22748  -1.11749  -1.06374  -1.02038
 Alpha  occ. eigenvalues --   -0.96027  -0.86162  -0.72962  -0.70236  -0.66346
 Alpha  occ. eigenvalues --   -0.62897  -0.59621  -0.59615  -0.56820  -0.48824
 Alpha  occ. eigenvalues --   -0.41679  -0.40116  -0.38408  -0.31813
 Alpha virt. eigenvalues --    0.02615   0.03066   0.03755   0.04450   0.04726
 Alpha virt. eigenvalues --    0.05381   0.06880   0.07742   0.08939   0.08975
 Alpha virt. eigenvalues --    0.09591   0.10555   0.10646   0.11747   0.11803

 Mulliken charges:
               1
     1  C   -0.897922
     2  C    1.090025
     3  C   -0.697575
     4  C    1.369686
     5  H    0.094572
     6  C   -1.303156
     7  H    0.472199
     8  H    0.295819
     9  H    0.294324
    10  C   -0.940965
    11  H    0.289431
    12  C   -0.071157
    13  H    0.004719
 Sum of Mulliken charges =  -0.00000

 Dipole moment (field-independent basis, Debye):
    X=             -1.2419    Y=             -0.0662    Z=              0.0017  Tot=              1.2437
 Quadrupole moment (field-independent basis, Debye-Ang):
   XX=            -28.7157   YY=            -40.7713   ZZ=            -44.8641
   XY=              2.0279   XZ=             -0.0039   YZ=              0.0010

 69.6548559\CCSD=-269.6535816\CCSD(T)=-269.7145375\RMSD=4.592e-09\PG=C0
 Normal termination of Gaussian 16 at Mon Sep 28 22:07:51 2020.
