   * xtb version 6.2.2 (9d81278992624c895f80dd42a50cac0aa55982e2) compiled by '@Darwin' on 04/03/2020
          program call               : xtb --input N1O2_0_S_1.input N1O2_0_S_1.xyz --ohess --molden --namespace N1O2_0_S_1 output.out
          number of atoms            :                     3
          number of electrons        :                    17
          charge                     :                     0
          spin                       :                   0.5

   ID    Z sym.   atoms
    1    7 N      1
    2    8 O      2, 3

          :  Hamiltonian                  GFN2-xTB          :
 * total energy  :   -10.8139746 Eh     change       -0.4780816E-09 Eh
 * total energy  :   -10.8844878 Eh     change       -0.7051324E-01 Eh
 * total energy  :   -10.8919000 Eh     change       -0.7412134E-02 Eh
 * total energy  :   -10.9055950 Eh     change       -0.1369499E-01 Eh
 * total energy  :   -10.9060796 Eh     change       -0.4846486E-03 Eh
 * total energy  :   -10.9061017 Eh     change       -0.2207320E-04 Eh
 * total energy  :   -10.9061017 Eh     change       -0.5633790E-07 Eh
   *** GEOMETRY OPTIMIZATION CONVERGED AFTER 7 ITERATIONS ***

 final structure:
================
3
 xtb: 6.2.2 (9d81278992624c895f80dd42a50cac0aa55982e2)
N        -0.00135209439285    0.28282962745397    0.00000000000000
O        -1.10118521383070   -0.14667972694256    0.00000000000000
O         1.10253730822355   -0.13614990051140    0.00000000000000

          :  Hamiltonian                  GFN2-xTB          :
         :: gradient norm              0.000147804422 Eh/a0 ::
         :: HOMO-LUMO gap              1.311201225791 eV    ::
         :: SCC energy               -10.952995293461 Eh    ::
         :: -> dispersion             -0.000650698644 Eh    ::
         :: repulsion energy           0.046893564750 Eh    ::

    * Orbital Energies and Occupations

         #    Occupation            Energy/Eh            Energy/eV
      -------------------------------------------------------------
         1        2.0000           -0.8231881             -22.4001
         2        2.0000           -0.8006480             -21.7867
         3        2.0000           -0.6868545             -18.6903
         4        2.0000           -0.6843987             -18.6234
         5        2.0000           -0.6594895             -17.9456
         6        2.0000           -0.6308296             -17.1657
         7        2.0000           -0.5343100             -14.5393
         8        2.0000           -0.5247613             -14.2795
         9        1.0000           -0.3787532             -10.3064 (HOMO)
        10                         -0.3305675              -8.9952 (LUMO)
        11                          0.1430191               3.8917
        12                          0.5654093              15.3856
      -------------------------------------------------------------
                  HL-Gap            0.0481858 Eh            1.3112 eV

     #   Z        covCN         q      C6AA      Î±(0)
     1   7 N      1.846     0.464    14.891     5.719
     2   8 O      0.923    -0.232    18.575     5.780
     3   8 O      0.923    -0.232    18.575     5.780

Wiberg/Mayer (AO) data.
largest (>0.10) Wiberg bond orders for each atom
          total WBO             WBO to atom ...

molecular dipole:
                 x           y           z       tot (Debye)
 q only:       -0.002       0.372      -0.000
   full:       -0.002       0.317      -0.000       0.806

 projected vibrational frequencies (cm-1)
eigval :       -0.00    -0.00     0.00     0.00     0.00     0.00
eigval :      651.43  1428.19  1930.36

   temp. (K)  partition function   enthalpy   heat capacity  entropy
                                   cal/mol     cal/K/mol   cal/K/mol   J/K/mol
  10.00  VIB   1.00                    0.000      0.000     -0.000
         ROT   12.3                   29.809      2.981      7.974
         INT   12.3                   29.809      2.981      7.974
         TR   0.185E+25               49.681      4.968     20.528
         TOT                          79.4904     7.9490    28.5024   119.2541

       T/K    H(0)-H(T)+PV         H(T)/Eh          T*S/Eh         G(T)/Eh
   ------------------------------------------------------------------------
    298.15    0.391803E-02    0.130534E-01    0.265448E-01   -0.134914E-01
    120.00    0.152132E-02    0.106567E-01    0.922814E-02    0.142859E-02
    100.00    0.126701E-02    0.104024E-01    0.745837E-02    0.294405E-02
     80.00    0.101343E-02    0.101488E-01    0.574044E-02    0.440841E-02
     60.00    0.760057E-03    0.989547E-02    0.408672E-02    0.580875E-02
     40.00    0.506704E-03    0.964211E-02    0.251909E-02    0.712302E-02
     20.00    0.253352E-03    0.938876E-02    0.108399E-02    0.830477E-02
     10.00    0.126676E-03    0.926209E-02    0.454215E-03    0.880787E-02 (used)
   ------------------------------------------------------------------------

         :::::::::::::::::::::::::::::::::::::::::::::::::::::
         ::                  THERMODYNAMIC                  ::
         :::::::::::::::::::::::::::::::::::::::::::::::::::::
         :: total free energy         -10.897293858280 Eh   ::
         ::.................................................::
         :: total energy              -10.906101729568 Eh   ::
         :: zero point energy           0.009135410241 Eh   ::
         :: G(RRHO) w/o ZPVE           -0.000327538953 Eh   ::
         :: G(RRHO) contrib.            0.008807871288 Eh   ::
         :::::::::::::::::::::::::::::::::::::::::::::::::::::

           -------------------------------------------------
          | TOTAL ENERGY              -10.906101729568 Eh   |
          | TOTAL ENTHALPY            -10.896839643312 Eh   |
          | TOTAL FREE ENERGY         -10.897293858280 Eh   |
          | GRADIENT NORM               0.000147806100 Eh/Î± |
          | HOMO-LUMO GAP               1.311201208649 eV   |
           -------------------------------------------------

 * finished run on 2020/05/12 at 11:45:16.481
