   * xtb version 6.2.2 (9d81278992624c895f80dd42a50cac0aa55982e2) compiled by '@Darwin' on 04/03/2020
          program call               : xtb --input H1C3N1_18_S_0.input H1C3N1_18_S_0.xyz --ohess --molden --namespace H1C3N1_18_S_0 output.out
          number of atoms            :                     5
          number of electrons        :                    18
          charge                     :                     0
          spin                       :                   0.0

   ID    Z sym.   atoms
    1    6 C      1, 3, 4
    2    7 N      2
    3    1 H      5

          :  Hamiltonian                  GFN2-xTB          :
 * total energy  :    -9.3809843 Eh     change       -0.1438671E-09 Eh
 * total energy  :    -9.4179766 Eh     change       -0.3699225E-01 Eh
 * total energy  :    -9.4532939 Eh     change       -0.3531734E-01 Eh
 * total energy  :    -9.4649520 Eh     change       -0.1165802E-01 Eh
 * total energy  :    -9.4668513 Eh     change       -0.1899382E-02 Eh
 * total energy  :    -9.4669387 Eh     change       -0.8736937E-04 Eh
 * total energy  :    -9.4714511 Eh     change       -0.4512371E-02 Eh
 * total energy  :    -9.4248578 Eh     change        0.4659326E-01 Eh
 * total energy  :    -9.4784358 Eh     change       -0.5357800E-01 Eh
 * total energy  :    -9.4913508 Eh     change       -0.1291498E-01 Eh
 * total energy  :    -9.5339597 Eh     change       -0.6501239E-02 Eh
 * total energy  :    -9.5372054 Eh     change       -0.3245684E-02 Eh
 * total energy  :    -9.5376827 Eh     change       -0.4772975E-03 Eh
 * total energy  :    -9.5378415 Eh     change       -0.1588837E-03 Eh
 * total energy  :    -9.5378752 Eh     change       -0.3361965E-04 Eh
 * total energy  :    -9.5378939 Eh     change       -0.1873247E-04 Eh
 * total energy  :    -9.5378993 Eh     change       -0.5382931E-05 Eh
 * total energy  :    -9.5379048 Eh     change       -0.5479588E-05 Eh
 * total energy  :    -9.5379057 Eh     change       -0.9335258E-06 Eh
   *** GEOMETRY OPTIMIZATION CONVERGED AFTER 21 ITERATIONS ***

 final structure:
================
5
 xtb: 6.2.2 (9d81278992624c895f80dd42a50cac0aa55982e2)
C         0.70577946975536   -0.84476392463669    0.24011644350244
N         0.28735624111094    0.39748502701709   -0.24229839471494
C        -0.62728120380056   -0.71480304731359    0.64773009637263
C        -0.92799113563421   -0.18323156647100   -0.61202459225208
H         0.56213662856846    1.34531451140419   -0.03352255290805

          :  Hamiltonian                  GFN2-xTB          :
         :: gradient norm              0.000144638320 Eh/a0 ::
         :: HOMO-LUMO gap              3.244202192143 eV    ::
         :: SCC energy                -9.655945481111 Eh    ::
         :: -> dispersion             -0.002054538309 Eh    ::
         :: repulsion energy           0.118039768479 Eh    ::

    * Orbital Energies and Occupations

         #    Occupation            Energy/Eh            Energy/eV
      -------------------------------------------------------------
         1        2.0000           -0.7417368             -20.1837
         2        2.0000           -0.6528702             -17.7655
         3        2.0000           -0.6430817             -17.4991
         4        2.0000           -0.5943507             -16.1731
         5        2.0000           -0.5309081             -14.4467
         6        2.0000           -0.5197103             -14.1420
         7        2.0000           -0.4600246             -12.5179
         8        2.0000           -0.4275891             -11.6353
         9        2.0000           -0.4115311             -11.1983 (HOMO)
        10                         -0.2923089              -7.9541 (LUMO)
        11                         -0.2865700              -7.7980
        12                         -0.2535829              -6.9003
        13                         -0.0489374              -1.3317
        14                          0.0448563               1.2206
        15                          0.1994590               5.4276
        16                          0.2387248               6.4960
        17                          0.5080260              13.8241
      -------------------------------------------------------------
                  HL-Gap            0.1192222 Eh            3.2442 eV

     #   Z        covCN         q      C6AA      Î±(0)
     1   6 C      2.467    -0.089    30.544     9.022
     2   7 N      3.513     0.029    20.727     6.762
     3   6 C      2.795    -0.020    28.482     8.742
     4   6 C      2.467    -0.089    30.545     9.022
     5   1 H      0.860     0.169     1.282     1.773

Wiberg/Mayer (AO) data.
largest (>0.10) Wiberg bond orders for each atom
          total WBO             WBO to atom ...

molecular dipole:
                 x           y           z       tot (Debye)
 q only:        0.256       0.650       0.014
Molecule has the following symmetry elements: (sigma)
It seems to be the Cs point group
   full:        0.436       1.261       0.143       3.411

 projected vibrational frequencies (cm-1)
eigval :       -0.00    -0.00     0.00     0.00     0.00     0.00
eigval :      536.69   581.24   730.89   851.47   984.55  1081.91
eigval :     1318.68  1432.16  3406.82

   temp. (K)  partition function   enthalpy   heat capacity  entropy
                                   cal/mol     cal/K/mol   cal/K/mol   J/K/mol
  10.00  VIB   1.00                    0.000      0.000     -0.000
         ROT   81.7                   29.809      2.981     11.731
         INT   81.7                   29.809      2.981     11.731
         TR   0.217E+25               49.681      4.968     20.838
         TOT                          79.4904     7.9490    32.5689   136.2682

       T/K    H(0)-H(T)+PV         H(T)/Eh          T*S/Eh         G(T)/Eh
   ------------------------------------------------------------------------
    298.15    0.439419E-02    0.292818E-01    0.291029E-01    0.178927E-03
    120.00    0.152725E-02    0.264149E-01    0.100127E-01    0.164022E-01
    100.00    0.126858E-02    0.261562E-01    0.810822E-02    0.180480E-01
     80.00    0.101365E-02    0.259013E-01    0.625914E-02    0.196422E-01
     60.00    0.760065E-03    0.256477E-01    0.447557E-02    0.211721E-01
     40.00    0.506704E-03    0.253943E-01    0.277831E-02    0.226160E-01
     20.00    0.253352E-03    0.251410E-01    0.121360E-02    0.239274E-01
     10.00    0.126676E-03    0.250143E-01    0.519018E-03    0.244953E-01 (used)
   ------------------------------------------------------------------------

         :::::::::::::::::::::::::::::::::::::::::::::::::::::
         ::                  THERMODYNAMIC                  ::
         :::::::::::::::::::::::::::::::::::::::::::::::::::::
         :: total free energy          -9.513410390329 Eh   ::
         ::.................................................::
         :: total energy               -9.537905687236 Eh   ::
         :: zero point energy           0.024887638920 Eh   ::
         :: G(RRHO) w/o ZPVE           -0.000392342013 Eh   ::
         :: G(RRHO) contrib.            0.024495296907 Eh   ::
         :::::::::::::::::::::::::::::::::::::::::::::::::::::

           -------------------------------------------------
          | TOTAL ENERGY               -9.537905687236 Eh   |
          | TOTAL ENTHALPY             -9.512891372300 Eh   |
          | TOTAL FREE ENERGY          -9.513410390329 Eh   |
          | GRADIENT NORM               0.000144692682 Eh/Î± |
          | HOMO-LUMO GAP               3.244200748293 eV   |
           -------------------------------------------------

 * finished run on 2020/05/12 at 11:44:57.403
