   * xtb version 6.2.2 (9d81278992624c895f80dd42a50cac0aa55982e2) compiled by '@Darwin' on 04/03/2020
          program call               : xtb --input H3C1N1_1_S_0.input H3C1N1_1_S_0.xyz --ohess --molden --namespace H3C1N1_1_S_0 output.out
          number of atoms            :                     5
          number of electrons        :                    12
          charge                     :                     0
          spin                       :                   0.0

   ID    Z sym.   atoms
    1    6 C      1
    2    7 N      2
    3    1 H      3-5

          :  Hamiltonian                  GFN2-xTB          :
 * total energy  :    -6.4031921 Eh     change       -0.1184528E-09 Eh
 * total energy  :    -6.4414253 Eh     change       -0.3823319E-01 Eh
 * total energy  :    -6.4438679 Eh     change       -0.2442662E-02 Eh
 * total energy  :    -6.4737276 Eh     change       -0.2985967E-01 Eh
 * total energy  :    -6.4818070 Eh     change       -0.8079444E-02 Eh
 * total energy  :    -6.4889365 Eh     change       -0.7129496E-02 Eh
 * total energy  :    -6.4933993 Eh     change       -0.4462810E-02 Eh
 * total energy  :    -6.4974755 Eh     change       -0.4076177E-02 Eh
 * total energy  :    -6.5039659 Eh     change       -0.6490357E-02 Eh
 * total energy  :    -6.5071508 Eh     change       -0.3184928E-02 Eh
 * total energy  :    -6.5146700 Eh     change       -0.7519246E-02 Eh
 * total energy  :    -6.5301359 Eh     change       -0.1546581E-01 Eh
 * total energy  :    -6.5332637 Eh     change       -0.3127823E-02 Eh
 * total energy  :    -6.5347918 Eh     change       -0.1528128E-02 Eh
 * total energy  :    -6.5354329 Eh     change       -0.6410811E-03 Eh
 * total energy  :    -6.5355153 Eh     change       -0.8239544E-04 Eh
 * total energy  :    -6.5355408 Eh     change       -0.2550009E-04 Eh
 * total energy  :    -6.5355534 Eh     change       -0.1261917E-04 Eh
 * total energy  :    -6.5355575 Eh     change       -0.4085509E-05 Eh
   *** GEOMETRY OPTIMIZATION CONVERGED AFTER 19 ITERATIONS ***

 final structure:
================
5
 xtb: 6.2.2 (9d81278992624c895f80dd42a50cac0aa55982e2)
C        -0.39062105930107   -0.04694831267627   -0.00734374517723
N         0.79419818547165   -0.44104367209571   -0.00995375934035
H        -1.17121665660534   -0.79818162190476   -0.05429220090992
H        -0.73347141188910    0.99334236631097    0.03686360080301
H         1.50111194232387    0.29283224036577    0.03472610462450

          :  Hamiltonian                  GFN2-xTB          :
         :: gradient norm              0.001015139838 Eh/a0 ::
         :: HOMO-LUMO gap              3.615691360819 eV    ::
         :: SCC energy                -6.635507088549 Eh    ::
         :: -> dispersion             -0.001039585246 Eh    ::
         :: repulsion energy           0.099949593203 Eh    ::

    * Orbital Energies and Occupations

         #    Occupation            Energy/Eh            Energy/eV
      -------------------------------------------------------------
         1        2.0000           -0.6463284             -17.5875
         2        2.0000           -0.5745839             -15.6352
         3        2.0000           -0.5358808             -14.5821
         4        2.0000           -0.4855722             -13.2131
         5        2.0000           -0.4789084             -13.0318
         6        2.0000           -0.3854080             -10.4875 (HOMO)
         7                         -0.2525338              -6.8718 (LUMO)
         8                          0.0970768               2.6416
         9                          0.1269196               3.4537
        10                          0.2913398               7.9278
        11                          0.5594336              15.2230
      -------------------------------------------------------------
                  HL-Gap            0.1328742 Eh            3.6157 eV

     #   Z        covCN         q      C6AA      Î±(0)
     1   6 C      2.759     0.057    26.703     8.462
     2   7 N      1.770    -0.274    27.934     7.826
     3   1 H      0.925     0.055     2.262     2.352
     4   1 H      0.924     0.014     2.829     2.630
     5   1 H      0.860     0.149     1.409     1.859

Wiberg/Mayer (AO) data.
largest (>0.10) Wiberg bond orders for each atom
          total WBO             WBO to atom ...

molecular dipole:
                 x           y           z       tot (Debye)
 q only:       -0.172       0.249       0.009
   full:       -0.326       0.647       0.026       1.843

 projected vibrational frequencies (cm-1)
eigval :       -0.00    -0.00    -0.00    -0.00     0.00     0.00
eigval :     1009.19  1021.03  1099.73  1308.43  1437.61  1747.95
eigval :     2865.46  3032.27  3309.96

   temp. (K)  partition function   enthalpy   heat capacity  entropy
                                   cal/mol     cal/K/mol   cal/K/mol   J/K/mol
  10.00  VIB   1.00                    0.000      0.000     -0.000
         ROT   11.4                   29.809      2.981      7.816
         INT   11.4                   29.809      2.981      7.816
         TR   0.930E+24               49.681      4.968     19.157
         TOT                          79.4904     7.9490    26.9729   112.8547

       T/K    H(0)-H(T)+PV         H(T)/Eh          T*S/Eh         G(T)/Eh
   ------------------------------------------------------------------------
    298.15    0.389026E-02    0.422355E-01    0.257693E-01    0.164662E-01
    120.00    0.152017E-02    0.398654E-01    0.893435E-02    0.309311E-01
    100.00    0.126677E-02    0.396120E-01    0.721435E-02    0.323977E-01
     80.00    0.101341E-02    0.393587E-01    0.554541E-02    0.338133E-01
     60.00    0.760056E-03    0.391053E-01    0.394047E-02    0.351649E-01
     40.00    0.506704E-03    0.388520E-01    0.242159E-02    0.364304E-01
     20.00    0.253352E-03    0.385986E-01    0.103524E-02    0.375634E-01
     10.00    0.126676E-03    0.384719E-01    0.429841E-03    0.380421E-01 (used)
   ------------------------------------------------------------------------

         :::::::::::::::::::::::::::::::::::::::::::::::::::::
         ::                  THERMODYNAMIC                  ::
         :::::::::::::::::::::::::::::::::::::::::::::::::::::
         :: total free energy          -6.497515385835 Eh   ::
         ::.................................................::
         :: total energy               -6.535557485983 Eh   ::
         :: zero point energy           0.038345264931 Eh   ::
         :: G(RRHO) w/o ZPVE           -0.000303164784 Eh   ::
         :: G(RRHO) contrib.            0.038042100147 Eh   ::
         :::::::::::::::::::::::::::::::::::::::::::::::::::::

           -------------------------------------------------
          | TOTAL ENERGY               -6.535557485983 Eh   |
          | TOTAL ENTHALPY             -6.497085545036 Eh   |
          | TOTAL FREE ENERGY          -6.497515385835 Eh   |
          | GRADIENT NORM               0.001015139384 Eh/Î± |
          | HOMO-LUMO GAP               3.615690915673 eV   |
           -------------------------------------------------

 * finished run on 2020/05/12 at 11:44:28.218
