 Gaussian 16, Revision B.01,

 ----------------------------------------------------------------
 #P M062X/cc-pvtz nosymm opt(noeigentest) optcyc=120 freq scf=xqc
 ----------------------------------------------------------------

 -----
 Title
 -----
 Symbolic Z-matrix:
 Charge =  0 Multiplicity = 3

 SCF Done:  E(UM062X) =  -265.425580906     A.U. after   28 cycles
 SCF Done:  E(UM062X) =  -265.427748535     A.U. after   26 cycles
 SCF Done:  E(UM062X) =  -265.427837483     A.U. after   19 cycles
 SCF Done:  E(UM062X) =  -265.427843477     A.U. after   24 cycles
 SCF Done:  E(UM062X) =  -265.427906968     A.U. after   28 cycles
 SCF Done:  E(UM062X) =  -265.319851195     A.U. after   31 cycles
 SCF Done:  E(UM062X) =  -265.428629340     A.U. after   33 cycles
 SCF Done:  E(UM062X) =  -265.435911692     a.u. after   14 cycles
 SCF Done:  E(UM062X) =  -265.431450490     A.U. after   33 cycles
 SCF Done:  E(UM062X) =  -265.431450490     a.u. after    1 cycles
 SCF Done:  E(UM062X) =  -265.443465378     a.u. after    8 cycles
 SCF Done:  E(UM062X) =  -265.443469751     A.U. after   15 cycles
 SCF Done:  E(UM062X) =  -265.443478365     A.U. after   33 cycles
 SCF Done:  E(UM062X) =  -265.443478365     a.u. after    1 cycles
 SCF Done:  E(UM062X) =  -265.443480062     A.U. after   33 cycles
 SCF Done:  E(UM062X) =  -265.443480062     a.u. after    1 cycles
 SCF Done:  E(UM062X) =  -265.443480705     A.U. after   15 cycles
 SCF Done:  E(UM062X) =  -265.443481471     A.U. after   30 cycles
 Optimization completed.
    -- Stationary point found.

 1\1\GINC-N1662\FOpt\UM062X\CC-pVTZ\C5O1(3)\SPANTALEONE\12-Oct-2020\0\\
 #P M062X/cc-pvtz nosymm opt(noeigentest) optcyc=120 freq scf=xqc\\Titl
 e\\0,3\C,-0.0021488387,0.0005065685,0.0532758474\C,-0.0003035304,0.000
 2654249,1.2809583668\C,0.0015507887,-0.0007557728,2.6032195209\C,0.003
 0019353,-0.0005311061,3.8591850634\C,0.0042300082,0.0000454651,5.14926
 67584\O,0.0049781066,0.0004694205,6.3103481735\\Version=ES64L-G16RevB.
 01\HF=-265.4434815\S2=2.10441\S2-1=0.\S2A=2.005049\RMSD=6.627e-09\RMSF
 =2.562e-05\Dipole=-0.0005201,0.0002384,-0.5631723\Quadrupole=2.8122982

 Normal termination of Gaussian 16 at Mon Oct 12 18:14:32 2020.

 -------------------------------------------------------------------
 #P Geom=AllCheck Guess=TCheck SCRF=Check GenChk UM062X/CC-pVTZ Freq
 -------------------------------------------------------------------

 Structure from the checkpoint file:  "input.chk"
 -----
 Title
 -----
 Charge =  0 Multiplicity = 3

 SCF Done:  E(UM062X) =  -265.443481471     A.U. after    1 cycles

  Exact polarizability:  28.414  -0.283  29.826   0.139   0.011 148.441
 Approx polarizability:  33.395  -0.064  33.708   0.234   0.009 230.747

                      1                      2                      3
                      A                      A                      A
 Frequencies --     98.1282               221.3748               254.7888
 Red. masses --     12.6592                12.0054                12.1041
 Frc consts  --      0.0718                 0.3466                 0.4630
 IR Inten    --      0.4011                 0.1576                 0.1080

                      4                      5                      6
                      A                      A                      A
 Frequencies --    316.3936               378.2490               495.7086
 Red. masses --     12.0327                12.5642                12.2457
 Frc consts  --      0.7097                 1.0591                 1.7729
 IR Inten    --      0.7572                12.2667                 0.3361

                      7                      8                      9
                      A                      A                      A
 Frequencies --    626.9824               658.1990              1303.5142
 Red. masses --     12.3090                13.0298                12.6643
 Frc consts  --      2.8509                 3.3259                12.6784
 IR Inten    --     23.1259                 0.0286                28.9341

                     10                     11                     12
                      A                      A                      A
 Frequencies --   1975.3012              1992.3137              2322.6437
 Red. masses --     12.3448                12.0029                12.4679
 Frc consts  --     28.3793                28.0707                39.6285
 IR Inten    --      1.5035                49.3412              2017.2677

 - Thermochemistry -
 -------------------
 Temperature   298.150 Kelvin.  Pressure   1.00000 Atm.
 Atom     1 has atomic number  6 and mass  12.00000

 Molecular mass:    75.99491 amu.
 Principal axes and moments of inertia in atomic units:
                           1         2         3
     Eigenvalues --     0.000091323.365271323.36536
           X            0.00113  -0.56515   0.82499
           Y            0.00000   0.82499   0.56515
           Z            1.00000   0.00064  -0.00094
 This molecule is an asymmetric top.
 Rotational symmetry number  1.
 Rotational temperatures (Kelvin) 916611.86375     0.06545     0.06545
 Rotational constants (GHZ):      ************     1.36375     1.36375
 Zero-point vibrational energy      63662.8 (Joules/Mol)
                                   15.21579 (Kcal/Mol)
 Warning -- explicit consideration of   6 degrees of freedom as
           vibrations may cause significant error
 Vibrational temperatures:    141.18   318.51   366.58   455.22   544.22
          (Kelvin)            713.21   902.09   947.00  1875.47  2842.02
                             2866.50  3341.77

 Zero-point correction=                           0.024248 (Hartree/Particle)
 Thermal correction to Energy=                    0.030074
 Thermal correction to Enthalpy=                  0.031018
 Thermal correction to Gibbs Free Energy=         0.000164
 Sum of electronic and zero-point Energies=           -265.419234
 Sum of electronic and thermal Energies=              -265.413408
 Sum of electronic and thermal Enthalpies=            -265.412464
 Sum of electronic and thermal Free Energies=         -265.443317

                     E (Thermal)             CV                S
                      KCal/Mol        Cal/Mol-Kelvin    Cal/Mol-Kelvin
 Total                   18.872             17.955             64.937
 Electronic               0.000              0.000              2.183
 Translational            0.889              2.981             38.900
 Rotational               0.889              2.981             12.879
 Vibrational             17.094             11.994             10.975
 Vibration     1          0.604              1.950              3.491
 Vibration     2          0.648              1.809              1.948
 Vibration     3          0.665              1.755              1.697
 Vibration     4          0.703              1.642              1.329
 Vibration     5          0.749              1.517              1.046
 Vibration     6          0.851              1.260              0.669

 Optimization completed.
    -- Stationary point found.

 1\1\GINC-N1662\Freq\UM062X\CC-pVTZ\C5O1(3)\SPANTALEONE\12-Oct-2020\0\\
 #P Geom=AllCheck Guess=TCheck SCRF=Check GenChk UM062X/CC-pVTZ Freq\\T
 itle\\0,3\C,-0.0021488387,0.0005065685,0.0532758474\C,-0.0003035304,0.
 0002654249,1.2809583668\C,0.0015507887,-0.0007557728,2.6032195209\C,0.
 0030019353,-0.0005311061,3.8591850634\C,0.0042300082,0.0000454651,5.14
 92667584\O,0.0049781066,0.0004694205,6.3103481735\\Version=ES64L-G16Re
 vB.01\HF=-265.4434815\S2=2.10441\S2-1=0.\S2A=2.005049\RMSD=8.499e-09\R
 MSF=2.562e-05\ZeroPoint=0.0242479\Thermal=0.0300737\Dipole=-0.0005201,

 Normal termination of Gaussian 16 at Mon Oct 12 18:15:35 2020.
 Gaussian 16:  ES64L-G16RevB.01 20-Dec-2017

 -------------------------------------------------
 #P ROCCSD(T)/aug-cc-pvtz geom=allcheck guess=read
 -------------------------------------------------

 Structure from the checkpoint file:  "input.chk"
 -----
 Title
 -----
 Charge =  0 Multiplicity = 3

                         Standard orientation:
 ---------------------------------------------------------------------
 Center     Atomic      Atomic             Coordinates (Angstroms)
 Number     Number       Type             X           Y           Z
 ---------------------------------------------------------------------
      1          6           0       -3.319311   -0.000641   -0.000082
      2          6           0       -2.091628   -0.000186    0.000155
      3          6           0       -0.769365    0.000856   -0.000131
      4          6           0        0.486601    0.000686    0.000018
      5          6           0        1.776683    0.000077    0.000149
      6          8           0        2.937765   -0.000594   -0.000082
 ---------------------------------------------------------------------

 SCF Done:  E(ROHF) =  -263.993824156     A.U. after   25 cycles
 E2 =    -0.9567805539D+00 EUMP2 =    -0.26495060470953D+03
 CCSD(T)
 CCSD(T)= -0.26500133857D+03

 The electronic state is 3-A.
 Alpha  occ. eigenvalues --  -20.64561 -11.40942 -11.35207 -11.33626 -11.29676
 Alpha  occ. eigenvalues --  -11.27568  -1.49145  -1.15234  -1.09121  -0.98679
 Alpha  occ. eigenvalues --   -0.85456  -0.74917  -0.67694  -0.64526  -0.63992
 Alpha  occ. eigenvalues --   -0.57169  -0.52330  -0.45533  -0.40381  -0.28520
 Alpha virt. eigenvalues --   -0.00541   0.04411   0.05351   0.06618   0.07094
 Alpha virt. eigenvalues --    0.07123   0.08370   0.08414   0.09950   0.11539
 Alpha virt. eigenvalues --    0.11676   0.13798   0.14478   0.16915   0.17001

 Mulliken charges and spin densities:
               1          2
     1  C   -0.820418   1.132342
     2  C    0.317944   0.186568
     3  C    0.082405   0.369671
     4  C    1.135057   0.048717
     5  C   -0.297089   0.200683
     6  O   -0.417899   0.062020
 Sum of Mulliken charges =  -0.00000   2.00000

 Dipole moment (field-independent basis, Debye):
    X=             -1.8807    Y=             -0.0002    Z=              0.0006  Tot=              1.8807
 Quadrupole moment (field-independent basis, Debye-Ang):
   XX=            -33.8690   YY=            -33.9569   ZZ=            -32.8943
   XY=              0.0051   XZ=              0.0011   YZ=              0.5588

 221\CCSD(T)=-265.0013386\RMSD=4.903e-09\PG=C01 [X(C5O1)]\\@
 Normal termination of Gaussian 16 at Mon Oct 12 19:18:33 2020.
