   * xtb version 6.2.2 (9d81278992624c895f80dd42a50cac0aa55982e2) compiled by '@Darwin' on 04/03/2020
          program call               : xtb --input H1C3N1_15_S_0.input H1C3N1_15_S_0.xyz --ohess --molden --namespace H1C3N1_15_S_0 output.out
          number of atoms            :                     5
          number of electrons        :                    18
          charge                     :                     0
          spin                       :                   0.0

   ID    Z sym.   atoms
    1    6 C      1-3
    2    7 N      4
    3    1 H      5

          :  Hamiltonian                  GFN2-xTB          :
 * total energy  :    -9.4261416 Eh     change        0.7293348E-09 Eh
 * total energy  :    -9.4996592 Eh     change       -0.7351752E-01 Eh
 * total energy  :    -9.5106069 Eh     change       -0.1094773E-01 Eh
 * total energy  :    -9.5765443 Eh     change       -0.6593738E-01 Eh
 * total energy  :    -9.5869877 Eh     change       -0.1044346E-01 Eh
 * total energy  :    -9.5944655 Eh     change       -0.7477730E-02 Eh
 * total energy  :    -9.5951261 Eh     change       -0.6606129E-03 Eh
 * total energy  :    -9.5992739 Eh     change       -0.4147810E-02 Eh
 * total energy  :    -9.5997455 Eh     change       -0.4716011E-03 Eh
 * total energy  :    -9.6000211 Eh     change       -0.2756168E-03 Eh
 * total energy  :    -9.6001808 Eh     change       -0.1596902E-03 Eh
 * total energy  :    -9.6002142 Eh     change       -0.3337571E-04 Eh
 * total energy  :    -9.6002633 Eh     change       -0.4917140E-04 Eh
 * total energy  :    -9.6002765 Eh     change       -0.1313477E-04 Eh
 * total energy  :    -9.6002845 Eh     change       -0.7988957E-05 Eh
 * total energy  :    -9.6002868 Eh     change       -0.2323622E-05 Eh
   *** GEOMETRY OPTIMIZATION CONVERGED AFTER 16 ITERATIONS ***

 final structure:
================
5
 xtb: 6.2.2 (9d81278992624c895f80dd42a50cac0aa55982e2)
C         1.87773042782631   -0.38878359265864    0.09438041849217
C         0.72748075822329    0.09823612578861    0.00548405796796
C        -0.73482250276865   -0.04041509717768   -0.01239415261356
N        -0.39583085012212    1.13064700881945   -0.14958637001795
H        -1.47455683315884   -0.79968544477175    0.06211604617137

          :  Hamiltonian                  GFN2-xTB          :
         :: gradient norm              0.000824073813 Eh/a0 ::
         :: HOMO-LUMO gap              2.719860984524 eV    ::
         :: SCC energy                -9.785058380239 Eh    ::
         :: -> dispersion             -0.002164920932 Eh    ::
         :: repulsion energy           0.184771523966 Eh    ::

    * Orbital Energies and Occupations

         #    Occupation            Energy/Eh            Energy/eV
      -------------------------------------------------------------
         1        2.0000           -0.7328779             -19.9426
         2        2.0000           -0.6476051             -17.6222
         3        2.0000           -0.6237847             -16.9740
         4        2.0000           -0.5884115             -16.0115
         5        2.0000           -0.5673709             -15.4389
         6        2.0000           -0.5134962             -13.9729
         7        2.0000           -0.4626143             -12.5884
         8        2.0000           -0.4189610             -11.4005
         9        2.0000           -0.4187526             -11.3948 (HOMO)
        10                         -0.3187996              -8.6750 (LUMO)
        11                         -0.3091920              -8.4135
        12                         -0.1774436              -4.8285
        13                         -0.0776620              -2.1133
        14                          0.0476568               1.2968
        15                          0.0998859               2.7180
        16                          0.6980875              18.9959
        17                          0.9291013              25.2821
      -------------------------------------------------------------
                  HL-Gap            0.0999530 Eh            2.7199 eV

     #   Z        covCN         q      C6AA      Î±(0)
     1   6 C      0.981    -0.184    42.052    10.892
     2   6 C      2.859     0.064    26.559     8.447
     3   6 C      2.816     0.140    24.943     8.183
     4   7 N      1.810    -0.110    24.168     7.283
     5   1 H      0.927     0.091     1.872     2.139

Wiberg/Mayer (AO) data.
largest (>0.10) Wiberg bond orders for each atom
          total WBO             WBO to atom ...

molecular dipole:
                 x           y           z       tot (Debye)
 q only:       -0.930      -0.237       0.006
   full:       -1.606      -0.362       0.005       4.186

 projected vibrational frequencies (cm-1)
eigval :       -0.00    -0.00    -0.00    -0.00     0.00     0.00
eigval :      265.21   369.41   617.39   783.02   848.54   886.94
eigval :     1698.97  1992.67  3237.34

   temp. (K)  partition function   enthalpy   heat capacity  entropy
                                   cal/mol     cal/K/mol   cal/K/mol   J/K/mol
  10.00  VIB   1.00                    0.000      0.000     -0.003
         ROT   110.                   29.809      2.981     12.325
         INT   110.                   29.809      2.981     12.322
         TR   0.217E+25               49.681      4.968     20.838
         TOT                          79.4904     7.9490    33.1602   138.7424

       T/K    H(0)-H(T)+PV         H(T)/Eh          T*S/Eh         G(T)/Eh
   ------------------------------------------------------------------------
    298.15    0.494173E-02    0.293170E-01    0.303224E-01   -0.100545E-02
    120.00    0.159513E-02    0.259704E-01    0.102142E-01    0.157562E-01
    100.00    0.130275E-02    0.256780E-01    0.824558E-02    0.174324E-01
     80.00    0.102599E-02    0.254012E-01    0.634971E-02    0.190515E-01
     60.00    0.762391E-03    0.251376E-01    0.453505E-02    0.206026E-01
     40.00    0.506794E-03    0.248820E-01    0.281624E-02    0.220658E-01
     20.00    0.253352E-03    0.246286E-01    0.123248E-02    0.233961E-01
     10.00    0.126676E-03    0.245019E-01    0.528442E-03    0.239735E-01 (used)
   ------------------------------------------------------------------------

         :::::::::::::::::::::::::::::::::::::::::::::::::::::
         ::                  THERMODYNAMIC                  ::
         :::::::::::::::::::::::::::::::::::::::::::::::::::::
         :: total free energy          -9.576313316270 Eh   ::
         ::.................................................::
         :: total energy               -9.600286789497 Eh   ::
         :: zero point energy           0.024375239243 Eh   ::
         :: G(RRHO) w/o ZPVE           -0.000401766017 Eh   ::
         :: G(RRHO) contrib.            0.023973473226 Eh   ::
         :::::::::::::::::::::::::::::::::::::::::::::::::::::

           -------------------------------------------------
          | TOTAL ENERGY               -9.600286789497 Eh   |
          | TOTAL ENTHALPY             -9.575784874238 Eh   |
          | TOTAL FREE ENERGY          -9.576313316270 Eh   |
          | GRADIENT NORM               0.000823922429 Eh/Î± |
          | HOMO-LUMO GAP               2.719859562977 eV   |
           -------------------------------------------------

 * finished run on 2020/05/12 at 11:44:56.182
