   * xtb version 6.2.2 (9d81278992624c895f80dd42a50cac0aa55982e2) compiled by '@Darwin' on 04/03/2020
          program call               : xtb --input C1_0_S_0.input C1_0_S_0.xyz --ohess --molden --namespace C1_0_S_0 output.out
          number of atoms            :                     1
          number of electrons        :                     4
          charge                     :                     0
          spin                       :                   0.0

   ID    Z sym.   atoms
    1    6 C      1

          :  Hamiltonian                  GFN2-xTB          :

 final structure:
================
1
 xtb: 6.2.2 (9d81278992624c895f80dd42a50cac0aa55982e2)
C         0.00000000000000    0.00000000000000    0.00000000000000

          :  Hamiltonian                  GFN2-xTB          :
         :: gradient norm              0.000000000000 Eh/a0 ::
         :: HOMO-LUMO gap              0.000000000000 eV    ::
         :: SCC energy                -1.795110518160 Eh    ::
         :: -> dispersion              0.000000000000 Eh    ::
         :: repulsion energy           0.000000000000 Eh    ::

    * Orbital Energies and Occupations

         #    Occupation            Energy/Eh            Energy/eV
      -------------------------------------------------------------
Molecule has the following symmetry elements: (i) (Cinf) (sigma)
It seems to be the Kh point group
         1        2.0000           -0.6918346             -18.8258
         2        0.6667           -0.4732337             -12.8773 (HOMO)
         3        0.6667           -0.4732337             -12.8773 (LUMO)
         4        0.6667           -0.4732337             -12.8773
      -------------------------------------------------------------
                  HL-Gap            0.0000000 Eh            0.0000 eV

     #   Z        covCN         q      C6AA      Î±(0)
     1   6 C      0.000    -0.000    49.264    12.336

Wiberg/Mayer (AO) data.
largest (>0.10) Wiberg bond orders for each atom
          total WBO             WBO to atom ...

molecular dipole:
                 x           y           z       tot (Debye)
 q only:        0.000       0.000       0.000
   full:        0.000       0.000       0.000       0.000

   temp. (K)  partition function   enthalpy   heat capacity  entropy
                                   cal/mol     cal/K/mol   cal/K/mol   J/K/mol
  10.00  VIB   1.00                    0.000      0.000      0.000
         ROT   1.00                    0.000      0.000      0.000
         INT   1.00                    0.000      0.000      0.000
         TR   0.247E+24               49.681      4.968     16.527
         TOT                          49.6815     4.9681    16.5268    69.1480

       T/K    H(0)-H(T)+PV         H(T)/Eh          T*S/Eh         G(T)/Eh
   ------------------------------------------------------------------------
    298.15    0.236053E-02    0.236053E-02    0.158625E-01   -0.135020E-01
    120.00    0.950070E-03    0.950070E-03    0.552013E-02   -0.457006E-02
    100.00    0.791725E-03    0.791725E-03    0.445583E-02   -0.366411E-02
     80.00    0.633380E-03    0.633380E-03    0.342340E-02   -0.279002E-02
     60.00    0.475035E-03    0.475035E-03    0.243096E-02   -0.195592E-02
     40.00    0.316690E-03    0.316690E-03    0.149230E-02   -0.117561E-02
     20.00    0.158345E-03    0.158345E-03    0.636445E-03   -0.478100E-03
     10.00    0.791725E-04    0.791725E-04    0.263371E-03   -0.184198E-03 (used)
   ------------------------------------------------------------------------

         :::::::::::::::::::::::::::::::::::::::::::::::::::::
         ::                  THERMODYNAMIC                  ::
         :::::::::::::::::::::::::::::::::::::::::::::::::::::
         :: total free energy          -1.795294716644 Eh   ::
         ::.................................................::
         :: total energy               -1.795110518160 Eh   ::
         :: zero point energy           0.000000000000 Eh   ::
         :: G(RRHO) w/o ZPVE           -0.000184198484 Eh   ::
         :: G(RRHO) contrib.           -0.000184198484 Eh   ::
         :::::::::::::::::::::::::::::::::::::::::::::::::::::

           -------------------------------------------------
          | TOTAL ENERGY               -1.795110518160 Eh   |
          | TOTAL ENTHALPY             -1.795031345650 Eh   |
          | TOTAL FREE ENERGY          -1.795294716644 Eh   |
          | GRADIENT NORM               0.000000000000 Eh/Î± |
          | HOMO-LUMO GAP               0.000000000000 eV   |
           -------------------------------------------------

 * finished run on 2020/05/13 at 16:22:14.369
