 Gaussian 16, Revision B.01,
 Gaussian 16:  ES64L-G16RevB.01 20-Dec-2017

 ------------------------
 #P ROCCSD(T)/aug-cc-pvtz
 ------------------------

 -----
 Title
 -----
 Symbolic Z-matrix:
 Charge =  0 Multiplicity = 2

                         Standard orientation:
 ---------------------------------------------------------------------
 Center     Atomic      Atomic             Coordinates (Angstroms)
 Number     Number       Type             X           Y           Z
 ---------------------------------------------------------------------
      1         17           0        0.000000    0.000000    0.000000
 ---------------------------------------------------------------------

 SCF Done:  E(ROHF) =  -459.480198431     A.U. after   10 cycles
 E2 =    -0.1681795937D+00 EUMP2 =    -0.45964837802467D+03
 CCSD(T)
 CCSD(T)= -0.45967620366D+03

 Unable to determine electronic state:  an orbital has unidentified symmetry.
 Alpha  occ. eigenvalues -- -104.89107 -10.61355  -8.09810  -8.07425  -8.07425
 Alpha  occ. eigenvalues --   -1.13214  -0.56988  -0.50691  -0.50691
 Alpha virt. eigenvalues --    0.10654   0.11424   0.11424   0.12194   0.31596
 Alpha virt. eigenvalues --    0.32359   0.32359   0.34195   0.34195   0.58758
 Alpha virt. eigenvalues --    0.61785   0.61785   0.85557   0.86929   0.86929

 Mulliken charges and spin densities:
               1          2
     1  Cl   0.000000   1.000000
 Sum of Mulliken charges =   0.00000   1.00000

 Dipole moment (field-independent basis, Debye):
    X=              0.0000    Y=              0.0000    Z=              0.0000  Tot=              0.0000
 Quadrupole moment (field-independent basis, Debye-Ang):
   XX=            -13.1435   YY=            -10.9428   ZZ=            -13.1435
   XY=             -0.0000   XZ=              0.0000   YZ=              0.0000

 MP2-0=-459.648378\MP4SDQ=-459.6702212\CCSD=-459.669862\CCSD(T)=-459.67
 Normal termination of Gaussian 16 at Mon Oct  5 21:23:11 2020.
