   * xtb version 6.2.2 (9d81278992624c895f80dd42a50cac0aa55982e2) compiled by '@Darwin' on 04/03/2020
          program call               : xtb --input C3O1_3_S_0.input C3O1_3_S_0.xyz --ohess --molden --namespace C3O1_3_S_0 output.out
          number of atoms            :                     4
          number of electrons        :                    18
          charge                     :                     0
          spin                       :                   0.0

   ID    Z sym.   atoms
    1    6 C      1-3
    2    8 O      4

          :  Hamiltonian                  GFN2-xTB          :
 * total energy  :   -10.0778226 Eh     change       -0.1424283E-10 Eh
 * total energy  :   -10.1358974 Eh     change       -0.5807472E-01 Eh
 * total energy  :   -10.1591244 Eh     change       -0.2322705E-01 Eh
 * total energy  :   -10.1792590 Eh     change       -0.2013455E-01 Eh
 * total energy  :   -10.1827853 Eh     change       -0.3526362E-02 Eh
 * total energy  :   -10.1846055 Eh     change       -0.1820206E-02 Eh
 * total energy  :   -10.1854995 Eh     change       -0.8939527E-03 Eh
 * total energy  :   -10.1867158 Eh     change       -0.1216343E-02 Eh
 * total energy  :   -10.1871936 Eh     change       -0.4777339E-03 Eh
 * total energy  :   -10.1872702 Eh     change       -0.7664922E-04 Eh
 * total energy  :   -10.1872946 Eh     change       -0.2438502E-04 Eh
 * total energy  :   -10.1873097 Eh     change       -0.1507499E-04 Eh
 * total energy  :   -10.1873237 Eh     change       -0.1408922E-04 Eh
 * total energy  :   -10.1873278 Eh     change       -0.4002371E-05 Eh
   *** GEOMETRY OPTIMIZATION CONVERGED AFTER 14 ITERATIONS ***

 final structure:
================
4
 xtb: 6.2.2 (9d81278992624c895f80dd42a50cac0aa55982e2)
C         1.60565450839802   -0.10112509585654    0.04628893141281
C         0.36967462944305    0.04438791966289    0.01782033286387
C        -0.98391482673498   -0.58415796250474   -0.08941414189728
O        -0.99141531110610    0.64089413869839    0.02530487762061

          :  Hamiltonian                  GFN2-xTB          :
         :: gradient norm              0.000428866594 Eh/a0 ::
         :: HOMO-LUMO gap              2.736587344844 eV    ::
         :: SCC energy               -10.323326100443 Eh    ::
         :: -> dispersion             -0.001661802997 Eh    ::
         :: repulsion energy           0.135998344567 Eh    ::

    * Orbital Energies and Occupations

         #    Occupation            Energy/Eh            Energy/eV
      -------------------------------------------------------------
         1        2.0000           -0.8295510             -22.5732
         2        2.0000           -0.7054841             -19.1972
         3        2.0000           -0.6934170             -18.8688
         4        2.0000           -0.6559953             -17.8505
         5        2.0000           -0.6470226             -17.6064
         6        2.0000           -0.5385392             -14.6544
         7        2.0000           -0.4856893             -13.2163
         8        2.0000           -0.4623589             -12.5814
         9        2.0000           -0.4540111             -12.3543 (HOMO)
        10                         -0.3534434              -9.6177 (LUMO)
        11                         -0.3507839              -9.5453
        12                         -0.2117295              -5.7615
        13                         -0.1188224              -3.2333
Molecule has the following symmetry elements: (sigma)
It seems to be the Cs point group
        14                         -0.0014034              -0.0382
        15                          0.4257131              11.5842
        16                          0.8981742              24.4406
      -------------------------------------------------------------
                  HL-Gap            0.1005677 Eh            2.7366 eV

     #   Z        covCN         q      C6AA      Î±(0)
     1   6 C      0.981    -0.149    40.779    10.726
     2   6 C      2.796     0.136    25.022     8.194
     3   6 C      1.833     0.060    29.636     8.795
     4   8 O      1.693    -0.047    15.106     5.247

Wiberg/Mayer (AO) data.
largest (>0.10) Wiberg bond orders for each atom
          total WBO             WBO to atom ...

molecular dipole:
                 x           y           z       tot (Debye)
 q only:       -0.380      -0.084      -0.021
   full:       -0.914       0.452       0.011       2.592

 projected vibrational frequencies (cm-1)
eigval :       -0.00    -0.00     0.00     0.00     0.00     0.00
eigval :      283.68   360.75   594.44   780.35  1538.96  1940.42

   temp. (K)  partition function   enthalpy   heat capacity  entropy
                                   cal/mol     cal/K/mol   cal/K/mol   J/K/mol
  10.00  VIB   1.00                    0.000      0.000     -0.002
         ROT   98.2                   29.809      2.981     12.095
         INT   98.2                   29.809      2.981     12.093
         TR   0.223E+25               49.681      4.968     20.895
         TOT                          79.4904     7.9490    32.9879   138.0216

       T/K    H(0)-H(T)+PV         H(T)/Eh          T*S/Eh         G(T)/Eh
   ------------------------------------------------------------------------
    298.15    0.481963E-02    0.173464E-01    0.300735E-01   -0.127271E-01
    120.00    0.158920E-02    0.141159E-01    0.101725E-01    0.394343E-02
    100.00    0.129873E-02    0.138255E-01    0.821258E-02    0.561289E-02
     80.00    0.102389E-02    0.135506E-01    0.632503E-02    0.722560E-02
     60.00    0.761783E-03    0.132885E-01    0.451781E-02    0.877071E-02
     40.00    0.506756E-03    0.130335E-01    0.280519E-02    0.102283E-01
     20.00    0.253352E-03    0.127801E-01    0.122698E-02    0.115531E-01
     10.00    0.126676E-03    0.126534E-01    0.525696E-03    0.121277E-01 (used)
   ------------------------------------------------------------------------

         :::::::::::::::::::::::::::::::::::::::::::::::::::::
         ::                  THERMODYNAMIC                  ::
         :::::::::::::::::::::::::::::::::::::::::::::::::::::
         :: total free energy         -10.175200034269 Eh   ::
         ::.................................................::
         :: total energy              -10.187327751796 Eh   ::
         :: zero point energy           0.012526737916 Eh   ::
         :: G(RRHO) w/o ZPVE           -0.000399020389 Eh   ::
         :: G(RRHO) contrib.            0.012127717527 Eh   ::
         :::::::::::::::::::::::::::::::::::::::::::::::::::::

           -------------------------------------------------
          | TOTAL ENERGY              -10.187327751796 Eh   |
          | TOTAL ENTHALPY            -10.174674337864 Eh   |
          | TOTAL FREE ENERGY         -10.175200034269 Eh   |
          | GRADIENT NORM               0.000428745419 Eh/Î± |
          | HOMO-LUMO GAP               2.736586176167 eV   |
           -------------------------------------------------

 * finished run on 2020/05/12 at 11:45:18.452
