   * xtb version 6.2.2 (9d81278992624c895f80dd42a50cac0aa55982e2) compiled by '@Darwin' on 04/03/2020
          program call               : xtb --input H1C3N1_23_S_0.input H1C3N1_23_S_0.xyz --ohess --molden --namespace H1C3N1_23_S_0 output.out
          number of atoms            :                     5
          number of electrons        :                    18
          charge                     :                     0
          spin                       :                   0.0

   ID    Z sym.   atoms
    1    6 C      1-3
    2    7 N      4
    3    1 H      5

          :  Hamiltonian                  GFN2-xTB          :
 * total energy  :    -9.4603130 Eh     change        0.6516032E-10 Eh
 * total energy  :    -9.5402691 Eh     change       -0.7995616E-01 Eh
 * total energy  :    -9.5738063 Eh     change       -0.3353721E-01 Eh
 * total energy  :    -9.5789732 Eh     change       -0.5166876E-02 Eh
 * total energy  :    -9.5836531 Eh     change       -0.4679848E-02 Eh
 * total energy  :    -9.5842731 Eh     change       -0.6200101E-03 Eh
 * total energy  :    -9.5846695 Eh     change       -0.3964376E-03 Eh
 * total energy  :    -9.5848108 Eh     change       -0.1412695E-03 Eh
 * total energy  :    -9.5848411 Eh     change       -0.3027175E-04 Eh
 * total energy  :    -9.5848550 Eh     change       -0.1398758E-04 Eh
 * total energy  :    -9.5848599 Eh     change       -0.4806449E-05 Eh
 * total energy  :    -9.5848613 Eh     change       -0.1465488E-05 Eh
   *** GEOMETRY OPTIMIZATION CONVERGED AFTER 12 ITERATIONS ***

 final structure:
================
5
 xtb: 6.2.2 (9d81278992624c895f80dd42a50cac0aa55982e2)
C         0.53553218908110    0.07431820835733   -0.06784454885927
C        -0.52258483573568    0.90966405073547   -0.36886987306432
C        -1.16206311768550   -0.10542320372088    0.43258157132868
N        -0.38451980196392   -0.91681690041142   -0.29869357228542
H         1.53363656630400    0.03825784503950    0.30282542288032

          :  Hamiltonian                  GFN2-xTB          :
         :: gradient norm              0.000641495973 Eh/a0 ::
         :: HOMO-LUMO gap              3.168417612023 eV    ::
         :: SCC energy                -9.713037601435 Eh    ::
         :: -> dispersion             -0.001955677685 Eh    ::
         :: repulsion energy           0.128176254771 Eh    ::

    * Orbital Energies and Occupations

         #    Occupation            Energy/Eh            Energy/eV
      -------------------------------------------------------------
         1        2.0000           -0.7491816             -20.3863
         2        2.0000           -0.6417126             -17.4619
         3        2.0000           -0.6347675             -17.2729
         4        2.0000           -0.5914243             -16.0935
         5        2.0000           -0.5430608             -14.7774
         6        2.0000           -0.5241014             -14.2615
         7        2.0000           -0.4848336             -13.1930
         8        2.0000           -0.4385231             -11.9328
         9        2.0000           -0.4317649             -11.7489 (HOMO)
        10                         -0.3153277              -8.5805 (LUMO)
        11                         -0.2812765              -7.6539
        12                         -0.2768777              -7.5342
        13                          0.0582335               1.5846
        14                          0.0752475               2.0476
        15                          0.1249260               3.3994
        16                          0.2683119               7.3011
        17                          0.5981034              16.2752
      -------------------------------------------------------------
                  HL-Gap            0.1164372 Eh            3.1684 eV

     #   Z        covCN         q      C6AA      Î±(0)
     1   6 C      3.680     0.123    18.773     6.206
     2   6 C      2.626    -0.067    29.655     8.907
     3   6 C      2.752    -0.017    28.417     8.729
     4   7 N      2.486    -0.117    23.598     7.214
     5   1 H      0.927     0.078     2.003     2.213

Wiberg/Mayer (AO) data.
largest (>0.10) Wiberg bond orders for each atom
          total WBO             WBO to atom ...

molecular dipole:
                 x           y           z       tot (Debye)
 q only:        0.538       0.113       0.127
   full:        1.092      -0.009       0.249       2.846

 projected vibrational frequencies (cm-1)
eigval :       -0.00    -0.00     0.00     0.00     0.00     0.00
eigval :      587.38   635.12   762.41   813.11   954.43  1180.77
eigval :     1337.09  1506.48  3213.09

   temp. (K)  partition function   enthalpy   heat capacity  entropy
                                   cal/mol     cal/K/mol   cal/K/mol   J/K/mol
  10.00  VIB   1.00                    0.000      0.000     -0.000
         ROT   81.3                   29.809      2.981     11.720
         INT   81.3                   29.809      2.981     11.720
         TR   0.217E+25               49.681      4.968     20.838
         TOT                          79.4904     7.9490    32.5574   136.2204

       T/K    H(0)-H(T)+PV         H(T)/Eh          T*S/Eh         G(T)/Eh
   ------------------------------------------------------------------------
    298.15    0.432660E-02    0.293634E-01    0.289976E-01    0.365754E-03
    120.00    0.152452E-02    0.265613E-01    0.100073E-01    0.165540E-01
    100.00    0.126774E-02    0.263045E-01    0.810543E-02    0.181991E-01
     80.00    0.101351E-02    0.260503E-01    0.625752E-02    0.197928E-01
     60.00    0.760059E-03    0.257969E-01    0.447446E-02    0.213224E-01
     40.00    0.506704E-03    0.255435E-01    0.277758E-02    0.227659E-01
     20.00    0.253352E-03    0.252901E-01    0.121323E-02    0.240769E-01
     10.00    0.126676E-03    0.251635E-01    0.518836E-03    0.246446E-01 (used)
   ------------------------------------------------------------------------

         :::::::::::::::::::::::::::::::::::::::::::::::::::::
         ::                  THERMODYNAMIC                  ::
         :::::::::::::::::::::::::::::::::::::::::::::::::::::
         :: total free energy          -9.560216685418 Eh   ::
         ::.................................................::
         :: total energy               -9.584861320975 Eh   ::
         :: zero point energy           0.025036795458 Eh   ::
         :: G(RRHO) w/o ZPVE           -0.000392159901 Eh   ::
         :: G(RRHO) contrib.            0.024644635557 Eh   ::
         :::::::::::::::::::::::::::::::::::::::::::::::::::::

           -------------------------------------------------
          | TOTAL ENERGY               -9.584861320975 Eh   |
          | TOTAL ENTHALPY             -9.559697849502 Eh   |
          | TOTAL FREE ENERGY          -9.560216685418 Eh   |
          | GRADIENT NORM               0.000641331616 Eh/Î± |
          | HOMO-LUMO GAP               3.168418377374 eV   |
           -------------------------------------------------

 * finished run on 2020/05/12 at 11:44:59.469
