   * xtb version 6.2.2 (9d81278992624c895f80dd42a50cac0aa55982e2) compiled by '@Darwin' on 04/03/2020
          program call               : xtb --input C3O1_5_S_2.input C3O1_5_S_2.xyz --ohess --molden --namespace C3O1_5_S_2 output.out
          number of atoms            :                     4
          number of electrons        :                    18
          charge                     :                     0
          spin                       :                   1.0

   ID    Z sym.   atoms
    1    6 C      1-3
    2    8 O      4

          :  Hamiltonian                  GFN2-xTB          :
 * total energy  :   -10.0671579 Eh     change       -0.1939959E-09 Eh
 * total energy  :   -10.0885187 Eh     change       -0.2136080E-01 Eh
 * total energy  :   -10.0888715 Eh     change       -0.3527171E-03 Eh
 * total energy  :   -10.0975735 Eh     change       -0.8702054E-02 Eh
 * total energy  :   -10.1141092 Eh     change       -0.1653566E-01 Eh
 * total energy  :   -10.0609448 Eh     change        0.5316441E-01 Eh
 * total energy  :   -10.1156870 Eh     change       -0.5474227E-01 Eh
 * total energy  :   -10.1192310 Eh     change       -0.3543971E-02 Eh
 * total energy  :   -10.1192521 Eh     change       -0.2107072E-04 Eh
 * total energy  :   -10.1192528 Eh     change       -0.7011962E-06 Eh
   *** GEOMETRY OPTIMIZATION CONVERGED AFTER 10 ITERATIONS ***

 final structure:
================
4
 xtb: 6.2.2 (9d81278992624c895f80dd42a50cac0aa55982e2)
C        -0.73075308345374   -0.43044040289875    0.11417284668793
C        -0.51998824136362    0.91787030981952   -0.20999130170876
C         0.72176758654187    0.41267665115455    0.20264678750694
O         0.52897373827549   -0.90010655807531   -0.10682833248611

          :  Hamiltonian                  GFN2-xTB          :
         :: gradient norm              0.000195438351 Eh/a0 ::
         :: HOMO-LUMO gap              2.904300456019 eV    ::
         :: SCC energy               -10.207405583384 Eh    ::
         :: -> dispersion             -0.001575417732 Eh    ::
         :: repulsion energy           0.088152794662 Eh    ::

    * Orbital Energies and Occupations

         #    Occupation            Energy/Eh            Energy/eV
      -------------------------------------------------------------
         1        2.0000           -0.8037090             -21.8700
         2        2.0000           -0.7140610             -19.4306
         3        2.0000           -0.6802111             -18.5095
         4        2.0000           -0.6303175             -17.1518
         5        2.0000           -0.5934964             -16.1499
         6        2.0000           -0.5795545             -15.7705
         7        2.0000           -0.4858981             -13.2220
         8        2.0000           -0.4674930             -12.7211
         9        1.0000           -0.4178324             -11.3698
        10        1.0000           -0.4144963             -11.2790 (HOMO)
        11                         -0.3077652              -8.3747 (LUMO)
Molecule has the following symmetry elements: (sigma)
It seems to be the Cs point group
        12                         -0.2673417              -7.2747
        13                          0.0835396               2.2732
        14                          0.1047537               2.8505
        15                          0.1270567               3.4574
        16                          0.4178089              11.3692
      -------------------------------------------------------------
                  HL-Gap            0.1067311 Eh            2.9043 eV

     #   Z        covCN         q      C6AA      Î±(0)
     1   6 C      2.769     0.084    26.112     8.369
     2   6 C      2.017    -0.038    32.040     9.142
     3   6 C      2.769     0.084    26.112     8.369
     4   8 O      1.763    -0.130    16.254     5.444

Wiberg/Mayer (AO) data.
largest (>0.10) Wiberg bond orders for each atom
          total WBO             WBO to atom ...

molecular dipole:
                 x           y           z       tot (Debye)
 q only:       -0.094       0.152       0.092
   full:        0.054      -0.116       0.222       0.651

 projected vibrational frequencies (cm-1)
eigval :       -0.00    -0.00    -0.00     0.00     0.00     0.00
eigval :      585.52   693.21   811.80   836.28  1220.56  1421.65

   temp. (K)  partition function   enthalpy   heat capacity  entropy
                                   cal/mol     cal/K/mol   cal/K/mol   J/K/mol
  10.00  VIB   1.00                    0.000      0.000     -0.000
         ROT   77.9                   29.809      2.981     11.637
         INT   77.9                   29.809      2.981     11.637
         TR   0.223E+25               49.681      4.968     20.895
         TOT                          79.4904     7.9490    32.5314   136.1115

       T/K    H(0)-H(T)+PV         H(T)/Eh          T*S/Eh         G(T)/Eh
   ------------------------------------------------------------------------
    298.15    0.422623E-02    0.169134E-01    0.288558E-01   -0.119424E-01
    120.00    0.152367E-02    0.142108E-01    0.100013E-01    0.420949E-02
    100.00    0.126755E-02    0.139547E-01    0.810106E-02    0.585362E-02
     80.00    0.101349E-02    0.137006E-01    0.625417E-02    0.744646E-02
     60.00    0.760058E-03    0.134472E-01    0.447197E-02    0.897523E-02
     40.00    0.506704E-03    0.131938E-01    0.277592E-02    0.104179E-01
     20.00    0.253352E-03    0.129405E-01    0.121240E-02    0.117281E-01
     10.00    0.126676E-03    0.128138E-01    0.518421E-03    0.122954E-01 (used)
   ------------------------------------------------------------------------

         :::::::::::::::::::::::::::::::::::::::::::::::::::::
         ::                  THERMODYNAMIC                  ::
         :::::::::::::::::::::::::::::::::::::::::::::::::::::
         :: total free energy         -10.106957388621 Eh   ::
         ::.................................................::
         :: total energy              -10.119252784336 Eh   ::
         :: zero point energy           0.012687141175 Eh   ::
         :: G(RRHO) w/o ZPVE           -0.000391745460 Eh   ::
         :: G(RRHO) contrib.            0.012295395715 Eh   ::
         :::::::::::::::::::::::::::::::::::::::::::::::::::::

           -------------------------------------------------
          | TOTAL ENERGY              -10.119252784336 Eh   |
          | TOTAL ENTHALPY            -10.106438967146 Eh   |
          | TOTAL FREE ENERGY         -10.106957388621 Eh   |
          | GRADIENT NORM               0.000195440521 Eh/Î± |
          | HOMO-LUMO GAP               2.904300455839 eV   |
           -------------------------------------------------

 * finished run on 2020/05/12 at 11:45:19.420
