 Gaussian 16, Revision B.01,

 --------------------------------------------------------
 #P M062X/cc-pvtz nosymm opt(noeigentest) optcyc=120 freq
 --------------------------------------------------------

 -----
 Title
 -----
 Symbolic Z-matrix:
 Charge =  0 Multiplicity = 2

 SCF Done:  E(UM062X) =  -113.842151927     A.U. after   14 cycles
 SCF Done:  E(UM062X) =  -113.847145276     A.U. after   15 cycles
 SCF Done:  E(UM062X) =  -113.847270251     A.U. after   12 cycles
 SCF Done:  E(UM062X) =  -113.847273521     A.U. after   10 cycles
 Optimization completed.
    -- Stationary point found.

 1\1\GINC-DAHU67\FOpt\UM062X\CC-pVTZ\C1H1O1(2)\TINACCIL\02-Oct-2020\0\\
 #P M062X/cc-pvtz nosymm opt(noeigentest) optcyc=120 freq\\Title\\0,2\C
 ,0.0073094098,0.,0.039256276\O,-0.0167853832,0.,1.2073728399\H,0.94850
 60864,0.,-0.5695712098\\Version=ES64L-G16RevB.01\HF=-113.8472735\S2=0.
 753676\S2-1=0.\S2A=0.750008\RMSD=5.993e-09\RMSF=9.863e-05\Dipole=0.399
 1423,0.,-0.5377011\Quadrupole=0.4199676,0.6304053,-1.050373,0.,-0.4297
 199,0.\PG=CS [SG(C1H1O1)]\\@

 Normal termination of Gaussian 16 at Fri Oct  2 21:28:34 2020.

 -------------------------------------------------------------------
 #P Geom=AllCheck Guess=TCheck SCRF=Check GenChk UM062X/CC-pVTZ Freq
 -------------------------------------------------------------------

 Structure from the checkpoint file:  "input.chk"
 -----
 Title
 -----
 Charge =  0 Multiplicity = 2

 SCF Done:  E(UM062X) =  -113.847273521     A.U. after    1 cycles

  Exact polarizability:  14.153  -0.000  10.122  -1.768   0.000  18.552
 Approx polarizability:  14.039   0.000  11.383  -1.693   0.000  23.548

                      1                      2                      3
                      A                      A                      A
 Frequencies --   1107.5615              1998.3790              2723.1032
 Red. masses --      1.2520                11.2207                 1.0831
 Frc consts  --      0.9049                26.4013                 4.7321
 IR Inten    --     47.1207                94.1157                57.9794

 - Thermochemistry -
 -------------------
 Temperature   298.150 Kelvin.  Pressure   1.00000 Atm.
 Atom     1 has atomic number  6 and mass  12.00000

 Molecular mass:    29.00274 amu.
 Principal axes and moments of inertia in atomic units:
                           1         2         3
     Eigenvalues --     2.51916  39.72967  42.24883
           X           -0.13350   0.99105  -0.00000
           Y           -0.00000   0.00000   1.00000
           Z            0.99105   0.13350  -0.00000
 This molecule is an asymmetric top.
 Rotational symmetry number  1.
 Rotational temperatures (Kelvin)     34.38209     2.18008     2.05009
 Rotational constants (GHZ):         716.40646    45.42553    42.71696
 Zero-point vibrational energy      34865.4 (Joules/Mol)
                                    8.33304 (Kcal/Mol)
 Vibrational temperatures:   1593.53  2875.22  3917.94
          (Kelvin)

 Zero-point correction=                           0.013280 (Hartree/Particle)
 Thermal correction to Energy=                    0.016137
 Thermal correction to Enthalpy=                  0.017081
 Thermal correction to Gibbs Free Energy=        -0.008370
 Sum of electronic and zero-point Energies=           -113.833994
 Sum of electronic and thermal Energies=              -113.831137
 Sum of electronic and thermal Enthalpies=            -113.830192
 Sum of electronic and thermal Free Energies=         -113.855644

                     E (Thermal)             CV                S
                      KCal/Mol        Cal/Mol-Kelvin    Cal/Mol-Kelvin
 Total                   10.126              6.248             53.567
 Electronic               0.000              0.000              1.377
 Translational            0.889              2.981             36.028
 Rotational               0.889              2.981             16.099
 Vibrational              8.349              0.286              0.062

 Optimization completed.
    -- Stationary point found.

 1\1\GINC-DAHU67\Freq\UM062X\CC-pVTZ\C1H1O1(2)\TINACCIL\02-Oct-2020\0\\
 #P Geom=AllCheck Guess=TCheck SCRF=Check GenChk UM062X/CC-pVTZ Freq\\T
 itle\\0,2\C,0.0073094098,0.,0.039256276\O,-0.0167853832,0.,1.207372839
 9\H,0.9485060864,0.,-0.5695712098\\Version=ES64L-G16RevB.01\HF=-113.84
 72735\S2=0.753676\S2-1=0.\S2A=0.750008\RMSD=9.402e-10\RMSF=9.863e-05\Z
 eroPoint=0.0132795\Thermal=0.0161369\Dipole=0.3991423,0.,-0.5377011\Di
 poleDeriv=0.2973315,0.,-0.2744937,0.,-0.0935369,0.,-0.3435191,0.,0.790
 6945,-0.2093987,0.,0.0423093,0.,-0.1279555,0.,0.2377943,0.,-0.8946363,

 Normal termination of Gaussian 16 at Fri Oct  2 21:28:49 2020.
 Gaussian 16:  ES64L-G16RevB.01 20-Dec-2017

 -------------------------------------------------
 #P ROCCSD(T)/aug-cc-pvtz geom=allcheck guess=read
 -------------------------------------------------

 Structure from the checkpoint file:  "input.chk"
 -----
 Title
 -----
 Charge =  0 Multiplicity = 2

                         Standard orientation:
 ---------------------------------------------------------------------
 Center     Atomic      Atomic             Coordinates (Angstroms)
 Number     Number       Type             X           Y           Z
 ---------------------------------------------------------------------
      1          6           0        0.061896    0.581254    0.000000
      2          8           0        0.061896   -0.587111   -0.000000
      3          1           0       -0.866545    1.209362    0.000000
 ---------------------------------------------------------------------

 SCF Done:  E(ROHF) =  -113.289595772     A.U. after   16 cycles
 E2 =    -0.3801819606D+00 EUMP2 =    -0.11366977773284D+03
 CCSD(T)
 CCSD(T)= -0.11369221227D+03

 The electronic state is 2-A'.
 Alpha  occ. eigenvalues --  -20.61792 -11.35851  -1.46557  -0.85730  -0.71141
 Alpha  occ. eigenvalues --   -0.64814  -0.58578  -0.37951
 Alpha virt. eigenvalues --    0.02770   0.06234   0.07601   0.08081   0.13055
 Alpha virt. eigenvalues --    0.13273   0.17683   0.19271   0.20524   0.23616
 Alpha virt. eigenvalues --    0.25970   0.26599   0.31354   0.33123   0.34622

 Mulliken charges and spin densities:
               1          2
     1  C   -0.141418   0.739795
     2  O   -0.332756   0.169078
     3  H    0.474174   0.091127
 Sum of Mulliken charges =  -0.00000   1.00000

 Dipole moment (field-independent basis, Debye):
    X=             -0.9191    Y=              1.9555    Z=              0.0000  Tot=              2.1607
 Quadrupole moment (field-independent basis, Debye-Ang):
   XX=            -11.3045   YY=            -11.5077   ZZ=            -10.9356
   XY=             -1.0814   XZ=             -0.0000   YZ=             -0.0000

 0=-113.6697777\MP4SDQ=-113.6761904\CCSD=-113.6743181\CCSD(T)=-113.6922
 Normal termination of Gaussian 16 at Fri Oct  2 21:30:32 2020.
