   * xtb version 6.2.2 (9d81278992624c895f80dd42a50cac0aa55982e2) compiled by '@Darwin' on 04/03/2020
          program call               : xtb --input C4N1_41_S_1.input C4N1_41_S_1.xyz --ohess --molden --namespace C4N1_41_S_1 output.out
          number of atoms            :                     5
          number of electrons        :                    21
          charge                     :                     0
          spin                       :                   0.5

   ID    Z sym.   atoms
    1    6 C      1, 2, 4, 5
    2    7 N      3

          :  Hamiltonian                  GFN2-xTB          :
 * total energy  :   -10.9740474 Eh     change       -0.1395868E-08 Eh
 * total energy  :   -11.0005052 Eh     change       -0.2645783E-01 Eh
 * total energy  :   -11.0422116 Eh     change       -0.4170638E-01 Eh
 * total energy  :   -11.0503712 Eh     change       -0.8159638E-02 Eh
 * total energy  :   -11.0558952 Eh     change       -0.5523933E-02 Eh
 * total energy  :   -11.0584771 Eh     change       -0.2581953E-02 Eh
 * total energy  :   -11.0619245 Eh     change       -0.3447414E-02 Eh
 * total energy  :   -11.0668587 Eh     change       -0.4934175E-02 Eh
 * total energy  :   -11.0694158 Eh     change       -0.2557061E-02 Eh
 * total energy  :   -11.0736610 Eh     change       -0.4245263E-02 Eh
 * total energy  :   -11.0867207 Eh     change       -0.1679016E-02 Eh
 * total energy  :   -11.0877003 Eh     change       -0.9795911E-03 Eh
 * total energy  :   -11.0879548 Eh     change       -0.2544891E-03 Eh
 * total energy  :   -11.0880375 Eh     change       -0.8269868E-04 Eh
 * total energy  :   -11.0880477 Eh     change       -0.1022861E-04 Eh
 * total energy  :   -11.0880500 Eh     change       -0.2294414E-05 Eh
 * total energy  :   -11.0880530 Eh     change       -0.3038078E-05 Eh
 * total energy  :   -11.0880555 Eh     change       -0.2493474E-05 Eh
 * total energy  :   -11.0880566 Eh     change       -0.1097239E-05 Eh
   *** GEOMETRY OPTIMIZATION CONVERGED AFTER 22 ITERATIONS ***

 final structure:
================
5
 xtb: 6.2.2 (9d81278992624c895f80dd42a50cac0aa55982e2)
C         1.26308091746703   -0.41067981052781   -0.05849275474028
C         0.15383021825396   -0.84483648853846    0.65514295696361
N        -0.87473785771098    0.95660374977756   -0.30250346044035
C        -0.95214945679179   -0.35102452042733   -0.03520922893840
C         0.40997617878179    0.64993706971604   -0.25893651284458

          :  Hamiltonian                  GFN2-xTB          :
         :: gradient norm              0.000417600006 Eh/a0 ::
         :: HOMO-LUMO gap              1.652778686177 eV    ::
         :: SCC energy               -11.253637726333 Eh    ::
         :: -> dispersion             -0.002698317097 Eh    ::
         :: repulsion energy           0.165581088012 Eh    ::

    * Orbital Energies and Occupations

         #    Occupation            Energy/Eh            Energy/eV
      -------------------------------------------------------------
         1        2.0000           -0.7589051             -20.6509
         2        2.0000           -0.6958387             -18.9347
         3        2.0000           -0.6490728             -17.6622
         4        2.0000           -0.6017731             -16.3751
         5        2.0000           -0.5852383             -15.9251
         6        2.0000           -0.5724984             -15.5785
         7        2.0000           -0.5131992             -13.9649
         8        2.0000           -0.4752550             -12.9323
         9        2.0000           -0.4579992             -12.4628
        10        2.0000           -0.4387852             -11.9400
        11        1.0000           -0.4090327             -11.1303 (HOMO)
        12                         -0.3482947              -9.4776 (LUMO)
        13                         -0.3004016              -8.1743
        14                         -0.2560319              -6.9670
        15                         -0.2319591              -6.3119
        16                          0.0961367               2.6160
        17                          0.2372638               6.4563
        18                          0.2828683               7.6972
        19                          0.3216116               8.7515
        20                          0.5795370              15.7700
      -------------------------------------------------------------
                  HL-Gap            0.0607380 Eh            1.6528 eV

     #   Z        covCN         q      C6AA      Î±(0)
     1   6 C      2.085    -0.069    32.778     9.249
     2   6 C      2.861     0.000    28.023     8.677
     3   7 N      1.851    -0.138    24.779     7.378
     4   6 C      2.937     0.063    26.581     8.456
     5   6 C      3.685     0.144    18.442     6.148

Wiberg/Mayer (AO) data.
largest (>0.10) Wiberg bond orders for each atom
          total WBO             WBO to atom ...

molecular dipole:
                 x           y           z       tot (Debye)
 q only:        0.062      -0.062       0.012
   full:        0.060      -0.020       0.075       0.249

 projected vibrational frequencies (cm-1)
eigval :       -0.00    -0.00    -0.00    -0.00     0.00     0.00
Molecule has no symmetry elements
It seems to be the C1 point group
eigval :      236.74   410.36   524.26   685.82   924.47  1007.10
eigval :     1062.46  1329.33  1565.46

   temp. (K)  partition function   enthalpy   heat capacity  entropy
                                   cal/mol     cal/K/mol   cal/K/mol   J/K/mol
  10.00  VIB   1.00                    0.000      0.000     -0.003
         ROT   162.                   29.809      2.981     13.086
         INT   162.                   29.809      2.981     13.082
         TR   0.290E+25               49.681      4.968     21.419
         TOT                          79.4904     7.9490    34.5018   144.3555

       T/K    H(0)-H(T)+PV         H(T)/Eh          T*S/Eh         G(T)/Eh
   ------------------------------------------------------------------------
    298.15    0.503456E-02    0.226812E-01    0.311136E-01   -0.843240E-02
    120.00    0.160631E-02    0.192530E-01    0.104877E-01    0.876531E-02
    100.00    0.131032E-02    0.189570E-01    0.847020E-02    0.104868E-01
     80.00    0.103027E-02    0.186769E-01    0.652648E-02    0.121505E-01
     60.00    0.763871E-03    0.184105E-01    0.466522E-02    0.137453E-01
     40.00    0.506921E-03    0.181536E-01    0.290196E-02    0.152516E-01
     20.00    0.253352E-03    0.179000E-01    0.127525E-02    0.166248E-01
     10.00    0.126676E-03    0.177733E-01    0.549821E-03    0.172235E-01 (used)
   ------------------------------------------------------------------------

         :::::::::::::::::::::::::::::::::::::::::::::::::::::
         ::                  THERMODYNAMIC                  ::
         :::::::::::::::::::::::::::::::::::::::::::::::::::::
         :: total free energy         -11.070833085938 Eh   ::
         ::.................................................::
         :: total energy              -11.088056613417 Eh   ::
         :: zero point energy           0.017646672614 Eh   ::
         :: G(RRHO) w/o ZPVE           -0.000423145135 Eh   ::
         :: G(RRHO) contrib.            0.017223527479 Eh   ::
         :::::::::::::::::::::::::::::::::::::::::::::::::::::

           -------------------------------------------------
          | TOTAL ENERGY              -11.088056613417 Eh   |
          | TOTAL ENTHALPY            -11.070283264788 Eh   |
          | TOTAL FREE ENERGY         -11.070833085938 Eh   |
          | GRADIENT NORM               0.000417949149 Eh/Î± |
          | HOMO-LUMO GAP               1.652764596632 eV   |
           -------------------------------------------------

 * finished run on 2020/05/12 at 11:44:16.718
