 Gaussian 16, Revision B.01,

 --------------------------------------------------------
 #P M062X/cc-pvtz nosymm opt(noeigentest) optcyc=120 freq
 --------------------------------------------------------

 -----
 Title
 -----
 Symbolic Z-matrix:
 Charge =  0 Multiplicity = 3

 SCF Done:  E(UM062X) =  -39.1347622899     A.U. after   13 cycles
 SCF Done:  E(UM062X) =  -39.1438478932     A.U. after   13 cycles
 SCF Done:  E(UM062X) =  -39.1450692184     A.U. after   12 cycles
 SCF Done:  E(UM062X) =  -39.1450827214     A.U. after    8 cycles
 Optimization completed.
    -- Stationary point found.
 Normal termination of Gaussian 16 at Fri Sep 25 11:32:16 2020.

 -------------------------------------------------------------------
 #P Geom=AllCheck Guess=TCheck SCRF=Check GenChk UM062X/CC-pVTZ Freq
 -------------------------------------------------------------------

 Structure from the checkpoint file:  "input.chk"
 -----
 Title
 -----
 Charge =  0 Multiplicity = 3

 SCF Done:  E(UM062X) =  -39.1450827214     A.U. after    1 cycles

  Exact polarizability:  11.187  -0.000   9.498  -1.661  -0.000  12.326
 Approx polarizability:  11.091  -0.000   9.542  -1.418   0.000  12.094

                      1                      2                      3
                      A                      A                      A
 Frequencies --   1096.9441              3171.0425              3393.7692
 Red. masses --      1.1351                 1.0280                 1.1378
 Frc consts  --      0.8047                 6.0903                 7.7210
 IR Inten    --     11.2764                 0.8707                 0.4367

 - Thermochemistry -
 -------------------
 Temperature   298.150 Kelvin.  Pressure   1.00000 Atm.
 Atom     1 has atomic number  6 and mass  12.00000

 Molecular mass:    14.01565 amu.
 Principal axes and moments of inertia in atomic units:
                           1         2         3
     Eigenvalues --     1.08359   7.06728   8.15087
           X           -0.57735   0.81650  -0.00000
           Y           -0.00000   0.00000   1.00000
           Z            0.81650   0.57735  -0.00000
 This molecule is an asymmetric top.
 Rotational symmetry number  1.
 Rotational temperatures (Kelvin)     79.93210    12.25563    10.62634
 Rotational constants (GHZ):        1665.51458   255.36582   221.41696
 Zero-point vibrational energy      45827.5 (Joules/Mol)
                                   10.95303 (Kcal/Mol)
 Vibrational temperatures:   1578.26  4562.42  4882.88
          (Kelvin)

 Zero-point correction=                           0.017455 (Hartree/Particle)
 Thermal correction to Energy=                    0.020313
 Thermal correction to Enthalpy=                  0.021257
 Thermal correction to Gibbs Free Energy=        -0.001558
 Sum of electronic and zero-point Energies=            -39.127628
 Sum of electronic and thermal Energies=               -39.124770
 Sum of electronic and thermal Enthalpies=             -39.123826
 Sum of electronic and thermal Free Energies=          -39.146641

                     E (Thermal)             CV                S
                      KCal/Mol        Cal/Mol-Kelvin    Cal/Mol-Kelvin
 Total                   12.746              6.244             48.017
 Electronic               0.000              0.000              2.183
 Translational            0.889              2.981             33.861
 Rotational               0.889              2.981             11.910
 Vibrational             10.969              0.283              0.063

 Optimization completed.
    -- Stationary point found.
 Normal termination of Gaussian 16 at Fri Sep 25 11:32:26 2020.
 Gaussian 16:  ES64L-G16RevB.01 20-Dec-2017

 -----------------------------------------------
 #P CCSD(T)/aug-cc-pvtz geom=allcheck guess=read
 -----------------------------------------------

 Structure from the checkpoint file:  "input.chk"
 -----
 Title
 -----
 Charge =  0 Multiplicity = 3

                         Standard orientation:
 ---------------------------------------------------------------------
 Center     Atomic      Atomic             Coordinates (Angstroms)
 Number     Number       Type             X           Y           Z
 ---------------------------------------------------------------------
      1          6           0        0.000000    0.104829   -0.000000
      2          1           0        0.990877   -0.314537    0.000000
      3          1           0       -0.990877   -0.314439   -0.000000
 ---------------------------------------------------------------------

 SCF Done:  E(UHF) =  -38.9381120450     A.U. after   10 cycles
 E2 =    -0.1194443912D+00 EUMP2 =    -0.39057556436197D+02
 CCSD(T)
 CCSD(T)= -0.39080085911D+02

 The electronic state is 3-A".
 Alpha  occ. eigenvalues --  -11.26579  -0.94989  -0.61969  -0.45089  -0.40918
 Alpha virt. eigenvalues --    0.03052   0.04505   0.08893   0.09398   0.13738
 Alpha virt. eigenvalues --    0.13993   0.20190   0.22747   0.25924   0.28445
 Alpha virt. eigenvalues --    0.28884   0.33478   0.33552   0.34138   0.37213

  Beta  occ. eigenvalues --  -11.21878  -0.77846  -0.58942
  Beta virt. eigenvalues --    0.03265   0.04552   0.05839   0.06560   0.13914
  Beta virt. eigenvalues --    0.14605   0.15857   0.17862   0.21193   0.23872
  Beta virt. eigenvalues --    0.26837   0.31427   0.31536   0.33704   0.36453

 Mulliken charges and spin densities:
               1          2
     1  C   -0.895829   2.057257
     2  H    0.447892  -0.028641
     3  H    0.447936  -0.028617
 Sum of Mulliken charges =  -0.00000   2.00000

 Dipole moment (field-independent basis, Debye):
    X=             -0.0000    Y=             -0.5762    Z=              0.0000  Tot=              0.5762
 Quadrupole moment (field-independent basis, Debye-Ang):
   XX=             -5.8695   YY=             -7.6833   ZZ=             -8.1974
   XY=             -0.0001   XZ=              0.0000   YZ=              0.0000

 0756511\CCSD=-39.0764867\CCSD(T)=-39.0800859\S2=2.016428\S2-1=2.005388
 Normal termination of Gaussian 16 at Fri Sep 25 11:34:39 2020.
