   * xtb version 6.2.2 (9d81278992624c895f80dd42a50cac0aa55982e2) compiled by '@Darwin' on 04/03/2020
          program call               : xtb --input C5_2_S_2.input C5_2_S_2.xyz --ohess --molden --namespace C5_2_S_2 output.out
          number of atoms            :                     5
          number of electrons        :                    20
          charge                     :                     0
          spin                       :                   1.0

   ID    Z sym.   atoms
    1    6 C      1-5

          :  Hamiltonian                  GFN2-xTB          :
 * total energy  :   -10.0515207 Eh     change       -0.2231221E-08 Eh
 * total energy  :   -10.1864441 Eh     change       -0.1349234E+00 Eh
 * total energy  :   -10.2112461 Eh     change       -0.2480199E-01 Eh
 * total energy  :   -10.2419722 Eh     change       -0.3072605E-01 Eh
 * total energy  :   -10.2470720 Eh     change       -0.5099795E-02 Eh
 * total energy  :   -10.2565667 Eh     change       -0.9494787E-02 Eh
 * total energy  :   -10.2599734 Eh     change       -0.3406660E-02 Eh
 * total energy  :   -10.2656338 Eh     change       -0.5660408E-02 Eh
 * total energy  :   -10.2651614 Eh     change        0.4723819E-03 Eh
 * total energy  :   -10.2663756 Eh     change       -0.1214200E-02 Eh
 * total energy  :   -10.2732617 Eh     change       -0.1677182E-03 Eh
 * total energy  :   -10.2732563 Eh     change        0.5373224E-05 Eh
 * total energy  :   -10.2733044 Eh     change       -0.4804557E-04 Eh
 * total energy  :   -10.2733137 Eh     change       -0.9324671E-05 Eh
 * total energy  :   -10.2733342 Eh     change       -0.2054867E-04 Eh
 * total energy  :   -10.2733515 Eh     change       -0.1730723E-04 Eh
 * total energy  :   -10.2733689 Eh     change       -0.1737210E-04 Eh
 * total energy  :   -10.2733745 Eh     change       -0.5549557E-05 Eh
 * total energy  :   -10.2733759 Eh     change       -0.1414978E-05 Eh
   *** GEOMETRY OPTIMIZATION CONVERGED AFTER 29 ITERATIONS ***

 final structure:
================
5
 xtb: 6.2.2 (9d81278992624c895f80dd42a50cac0aa55982e2)
C         1.24444909031090    0.06014646069058   -0.59673817301885
C        -0.00037566377587    0.00113233174648   -0.24277163506666
C        -1.24450852076514   -0.06049761693922    0.11085867265105
C         2.44542815432124    0.12327614954675   -0.93427779541246
C        -2.44499306009114   -0.12405732504458    0.45187493084690

          :  Hamiltonian                  GFN2-xTB          :
         :: gradient norm              0.000773787753 Eh/a0 ::
         :: HOMO-LUMO gap              0.000007991658 eV    ::
         :: SCC energy               -10.560662416935 Eh    ::
         :: -> dispersion             -0.002748872699 Eh    ::
         :: repulsion energy           0.287287835970 Eh    ::

    * Orbital Energies and Occupations

         #    Occupation            Energy/Eh            Energy/eV
      -------------------------------------------------------------
         1        2.0000           -0.6748125             -18.3626
         2        2.0000           -0.6648931             -18.0927
         3        2.0000           -0.6399775             -17.4147
         4        2.0000           -0.5923005             -16.1173
         5        2.0000           -0.5210197             -14.1777
         6        2.0000           -0.5210196             -14.1777
         7        2.0000           -0.4637009             -12.6179
         8        2.0000           -0.4636998             -12.6179
         9        1.9997           -0.4455940             -12.1252
        10        1.0003           -0.4298353             -11.6964
        11        0.5000           -0.3737222             -10.1695 (HOMO)
        12        0.5000           -0.3737219             -10.1695 (LUMO)
        13                         -0.2234041              -6.0791
        14                         -0.2234015              -6.0791
        15                         -0.0968900              -2.6365
        16                         -0.0968870              -2.6364
        17                          0.1086967               2.9578
        18                          0.5232582              14.2386
        19                          1.0435589              28.3967
        20                          1.4477176              39.3944
      -------------------------------------------------------------
                  HL-Gap            0.0000003 Eh            0.0000 eV

     #   Z        covCN         q      C6AA      Î±(0)
Molecule has the following symmetry elements: (i) (Cinf) (C2) 2*(sigma)
It seems to be the Dinfh point group
     1   6 C      1.962     0.040    30.049     8.852
     2   6 C      1.965     0.072    29.262     8.736
     3   6 C      1.962     0.040    30.046     8.852
     4   6 C      0.983    -0.076    38.301    10.396
     5   6 C      0.983    -0.076    38.311    10.397

Wiberg/Mayer (AO) data.
largest (>0.10) Wiberg bond orders for each atom
          total WBO             WBO to atom ...

molecular dipole:
                 x           y           z       tot (Debye)
 q only:        0.001       0.000      -0.001
   full:        0.002       0.000      -0.002       0.008

   temp. (K)  partition function   enthalpy   heat capacity  entropy
                                   cal/mol     cal/K/mol   cal/K/mol   J/K/mol
  10.00  VIB   1.00                    0.000      0.000     -0.044
         ROT   40.4                   19.873      1.987      9.336
         INT   40.4                   19.873      1.987      9.292
         TR   0.277E+25               49.681      4.968     21.322
         TOT                          69.5541     6.9554    30.6138   128.0882

       T/K    H(0)-H(T)+PV         H(T)/Eh          T*S/Eh         G(T)/Eh
   ------------------------------------------------------------------------
    298.15    0.638004E-02    0.234459E-01    0.313405E-01   -0.789462E-02
    120.00    0.180364E-02    0.188695E-01    0.988355E-02    0.898596E-02
    100.00    0.140658E-02    0.184725E-01    0.787591E-02    0.105965E-01
     80.00    0.104866E-02    0.181145E-01    0.598271E-02    0.121318E-01
     60.00    0.732413E-03    0.177983E-01    0.421528E-02    0.135830E-01
     40.00    0.457811E-03    0.175237E-01    0.258830E-02    0.149354E-01
     20.00    0.221865E-03    0.172877E-01    0.113083E-02    0.161569E-01
     10.00    0.110842E-03    0.171767E-01    0.487862E-03    0.166889E-01 (used)
   ------------------------------------------------------------------------

         :::::::::::::::::::::::::::::::::::::::::::::::::::::
         ::                  THERMODYNAMIC                  ::
         :::::::::::::::::::::::::::::::::::::::::::::::::::::
         :: total free energy         -10.256687015393 Eh   ::
         ::.................................................::
         :: total energy              -10.273375869123 Eh   ::
         :: zero point energy           0.017065874334 Eh   ::
         :: G(RRHO) w/o ZPVE           -0.000377020605 Eh   ::
         :: G(RRHO) contrib.            0.016688853729 Eh   ::
         :::::::::::::::::::::::::::::::::::::::::::::::::::::

           -------------------------------------------------
          | TOTAL ENERGY              -10.273375869123 Eh   |
          | TOTAL ENTHALPY            -10.256199153244 Eh   |
          | TOTAL FREE ENERGY         -10.256687015393 Eh   |
          | GRADIENT NORM               0.000773768084 Eh/Î± |
          | HOMO-LUMO GAP               0.000007995103 eV   |
           -------------------------------------------------

 * finished run on 2020/05/12 at 11:44:32.077
