   * xtb version 6.2.2 (9d81278992624c895f80dd42a50cac0aa55982e2) compiled by '@Darwin' on 04/03/2020
          program call               : xtb --input H1C3N1_1_S_0.input H1C3N1_1_S_0.xyz --ohess --molden --namespace H1C3N1_1_S_0 output.out
          number of atoms            :                     5
          number of electrons        :                    18
          charge                     :                     0
          spin                       :                   0.0

   ID    Z sym.   atoms
    1    6 C      1-3
    2    7 N      4
    3    1 H      5

          :  Hamiltonian                  GFN2-xTB          :
 * total energy  :    -9.2927615 Eh     change       -0.1501473E-08 Eh
 * total energy  :    -9.3250900 Eh     change       -0.3232852E-01 Eh
 * total energy  :    -9.3665874 Eh     change       -0.4149736E-01 Eh
 * total energy  :    -9.4913229 Eh     change       -0.1247355E+00 Eh
 * total energy  :    -9.5537884 Eh     change       -0.6246558E-01 Eh
 * total energy  :    -9.5668476 Eh     change       -0.1305913E-01 Eh
 * total energy  :    -9.5713650 Eh     change       -0.4517487E-02 Eh
 * total energy  :    -9.5746269 Eh     change       -0.3261831E-02 Eh
 * total energy  :    -9.5771216 Eh     change       -0.2494751E-02 Eh
 * total energy  :    -9.5782715 Eh     change       -0.1149829E-02 Eh
 * total energy  :    -9.5784526 Eh     change       -0.1811038E-03 Eh
 * total energy  :    -9.5784602 Eh     change       -0.7629216E-05 Eh
 * total energy  :    -9.5784601 Eh     change        0.1073397E-06 Eh
 * total energy  :    -9.5784574 Eh     change        0.2733648E-05 Eh
 * total energy  :    -9.5784618 Eh     change       -0.4484209E-05 Eh
   *** GEOMETRY OPTIMIZATION CONVERGED AFTER 15 ITERATIONS ***

 final structure:
================
5
 xtb: 6.2.2 (9d81278992624c895f80dd42a50cac0aa55982e2)
C        -0.96686909974624   -0.28131265077492   -0.54679692440803
C         0.02353430885338   -0.25980441539506    0.47942900542718
C         0.98504266513667   -0.14240556262952   -0.56770163592872
N        -0.05666849752620    0.66802580865035   -0.87536935851123
H         0.01495962328239    0.01549682014915    1.51043891342080

          :  Hamiltonian                  GFN2-xTB          :
         :: gradient norm              0.000417497331 Eh/a0 ::
         :: HOMO-LUMO gap              3.335410226494 eV    ::
         :: SCC energy                -9.700311795377 Eh    ::
         :: -> dispersion             -0.001960461589 Eh    ::
         :: repulsion energy           0.121849933210 Eh    ::

    * Orbital Energies and Occupations

         #    Occupation            Energy/Eh            Energy/eV
      -------------------------------------------------------------
         1        2.0000           -0.7536186             -20.5070
         2        2.0000           -0.6490900             -17.6626
         3        2.0000           -0.6337753             -17.2459
         4        2.0000           -0.5888305             -16.0229
         5        2.0000           -0.5466865             -14.8761
         6        2.0000           -0.5261815             -14.3181
         7        2.0000           -0.4665498             -12.6955
         8        2.0000           -0.4599566             -12.5161
         9        2.0000           -0.4293689             -11.6837 (HOMO)
        10                         -0.3067948              -8.3483 (LUMO)
        11                         -0.3061991              -8.3321
        12                         -0.2558330              -6.9616
        13                          0.0387837               1.0554
        14                          0.0464140               1.2630
        15                          0.1886874               5.1344
        16                          0.2432754               6.6199
        17                          0.5167615              14.0618
      -------------------------------------------------------------
                  HL-Gap            0.1225741 Eh            3.3354 eV

     #   Z        covCN         q      C6AA      Î±(0)
     1   6 C      2.469    -0.069    30.011     8.943
     2   6 C      3.752     0.093    19.098     6.232
     3   6 C      2.469    -0.069    30.009     8.943
     4   7 N      2.685    -0.035    21.930     6.955
     5   1 H      0.927     0.080     1.979     2.200

Wiberg/Mayer (AO) data.
largest (>0.10) Wiberg bond orders for each atom
          total WBO             WBO to atom ...

molecular dipole:
                 x           y           z       tot (Debye)
 q only:        0.008      -0.033       0.516
   full:       -0.007       0.245       0.952       2.498

 projected vibrational frequencies (cm-1)
eigval :       -0.00    -0.00     0.00     0.00     0.00     0.00
eigval :      605.94   728.38   733.16   822.60   916.49  1189.50
eigval :     1331.06  1472.18  3194.98

   temp. (K)  partition function   enthalpy   heat capacity  entropy
                                   cal/mol     cal/K/mol   cal/K/mol   J/K/mol
  10.00  VIB   1.00                    0.000      0.000     -0.000
         ROT   80.8                   29.809      2.981     11.708
         INT   80.8                   29.809      2.981     11.708
         TR   0.217E+25               49.681      4.968     20.838
         TOT                          79.4904     7.9490    32.5455   136.1703

       T/K    H(0)-H(T)+PV         H(T)/Eh          T*S/Eh         G(T)/Eh
   ------------------------------------------------------------------------
    298.15    0.429107E-02    0.293379E-01    0.289396E-01    0.398332E-03
    120.00    0.152336E-02    0.265702E-01    0.100036E-01    0.165666E-01
    100.00    0.126743E-02    0.263143E-01    0.810317E-02    0.182111E-01
     80.00    0.101347E-02    0.260603E-01    0.625595E-02    0.198044E-01
     60.00    0.760058E-03    0.258069E-01    0.447332E-02    0.213336E-01
     40.00    0.506704E-03    0.255535E-01    0.277682E-02    0.227767E-01
     20.00    0.253352E-03    0.253002E-01    0.121285E-02    0.240873E-01
     10.00    0.126676E-03    0.251735E-01    0.518645E-03    0.246549E-01 (used)
   ------------------------------------------------------------------------

         :::::::::::::::::::::::::::::::::::::::::::::::::::::
         ::                  THERMODYNAMIC                  ::
         :::::::::::::::::::::::::::::::::::::::::::::::::::::
         :: total free energy          -9.553806959859 Eh   ::
         ::.................................................::
         :: total energy               -9.578461833955 Eh   ::
         :: zero point energy           0.025046843452 Eh   ::
         :: G(RRHO) w/o ZPVE           -0.000391969355 Eh   ::
         :: G(RRHO) contrib.            0.024654874096 Eh   ::
         :::::::::::::::::::::::::::::::::::::::::::::::::::::

           -------------------------------------------------
          | TOTAL ENERGY               -9.578461833955 Eh   |
          | TOTAL ENTHALPY             -9.553288314488 Eh   |
          | TOTAL FREE ENERGY          -9.553806959859 Eh   |
          | GRADIENT NORM               0.000417593337 Eh/Î± |
          | HOMO-LUMO GAP               3.335410416472 eV   |
           -------------------------------------------------

 * finished run on 2020/05/12 at 11:44:50.386
