 Gaussian 16, Revision B.01,
 Gaussian 16:  ES64L-G16RevB.01 20-Dec-2017

 ----------------------
 #P CCSD(T)/aug-cc-pvtz
 ----------------------

 -----
 Title
 -----
 Symbolic Z-matrix:
 Charge =  0 Multiplicity = 1

                         Standard orientation:
 ---------------------------------------------------------------------
 Center     Atomic      Atomic             Coordinates (Angstroms)
 Number     Number       Type             X           Y           Z
 ---------------------------------------------------------------------
      1         12           0        0.000000    0.000000    0.000000
 ---------------------------------------------------------------------

 SCF Done:  E(RHF) =  -199.613351093     A.U. after    8 cycles
 E2 =    -0.2366114792D-01 EUMP2 =    -0.19963701224094D+03
 CCSD(T)
 CCSD(T)= -0.19964710099D+03

 The electronic state is 1-A1G.
 Alpha  occ. eigenvalues --  -49.03188  -3.76772  -2.28213  -2.28213  -2.28213
 Alpha  occ. eigenvalues --   -0.25306
 Alpha virt. eigenvalues --    0.01616   0.01616   0.01616   0.03180   0.05514
 Alpha virt. eigenvalues --    0.05514   0.05514   0.08166   0.08166   0.08166
 Alpha virt. eigenvalues --    0.08166   0.08166   0.20837   0.20837   0.20837

 Mulliken charges:
               1
     1  Mg   0.000000
 Sum of Mulliken charges =   0.00000

 Dipole moment (field-independent basis, Debye):
    X=              0.0000    Y=              0.0000    Z=              0.0000  Tot=              0.0000
 Quadrupole moment (field-independent basis, Debye-Ang):
   XX=            -13.2799   YY=            -13.2799   ZZ=            -13.2799
   XY=              0.0000   XZ=              0.0000   YZ=              0.0000

 7382\MP4DQ=-199.6450802\MP4SDQ=-199.6451855\CCSD=-199.647101\CCSD(T)=-
 Normal termination of Gaussian 16 at Mon Oct  5 21:27:09 2020.
