   * xtb version 6.2.2 (9d81278992624c895f80dd42a50cac0aa55982e2) compiled by '@Darwin' on 04/03/2020
          program call               : xtb --input C1O2_0_S_2.input C1O2_0_S_2.xyz --ohess --molden --namespace C1O2_0_S_2 output.out
          number of atoms            :                     3
          number of electrons        :                    16
          charge                     :                     0
          spin                       :                   1.0

   ID    Z sym.   atoms
    1    6 C      1
    2    8 O      2, 3

          :  Hamiltonian                  GFN2-xTB          :
 * total energy  :   -10.0162858 Eh     change       -0.2180656E-10 Eh
 * total energy  :   -10.0666803 Eh     change       -0.5039458E-01 Eh
 * total energy  :   -10.0688878 Eh     change       -0.2207504E-02 Eh
 * total energy  :   -10.0705789 Eh     change       -0.1691027E-02 Eh
 * total energy  :   -10.0706015 Eh     change       -0.2261063E-04 Eh
 * total energy  :   -10.0706016 Eh     change       -0.9579520E-07 Eh
   *** GEOMETRY OPTIMIZATION CONVERGED AFTER 6 ITERATIONS ***

 final structure:
================
3
 xtb: 6.2.2 (9d81278992624c895f80dd42a50cac0aa55982e2)
C        -0.00032282826315    0.42083820082787    0.00000000000000
O         1.06208883538339   -0.20960297829598    0.00000000000000
O        -1.06176600712024   -0.21123522253188    0.00000000000000

          :  Hamiltonian                  GFN2-xTB          :
         :: gradient norm              0.000292286683 Eh/a0 ::
         :: HOMO-LUMO gap              2.535990580339 eV    ::
         :: SCC energy               -10.130181395066 Eh    ::
         :: -> dispersion             -0.000685086990 Eh    ::
         :: repulsion energy           0.059579826009 Eh    ::

    * Orbital Energies and Occupations

         #    Occupation            Energy/Eh            Energy/eV
      -------------------------------------------------------------
         1        2.0000           -0.8040590             -21.8796
         2        2.0000           -0.7773851             -21.1537
         3        2.0000           -0.6746439             -18.3580
Molecule has the following symmetry elements: (C2) 2*(sigma)
It seems to be the C2v point group
         4        2.0000           -0.6437305             -17.5168
         5        2.0000           -0.6260462             -17.0356
         6        2.0000           -0.6211269             -16.9017
         7        2.0000           -0.5435517             -14.7908
         8        1.0000           -0.5159223             -14.0390
         9        1.0000           -0.3772463             -10.2654 (HOMO)
        10                         -0.2840504              -7.7294 (LUMO)
        11                          0.4011862              10.9168
        12                          0.4413052              12.0085
      -------------------------------------------------------------
                  HL-Gap            0.0931959 Eh            2.5360 eV

     #   Z        covCN         q      C6AA      Î±(0)
     1   6 C      1.711     0.295    24.664     8.040
     2   8 O      0.858    -0.147    17.232     5.566
     3   8 O      0.858    -0.147    17.232     5.566

Wiberg/Mayer (AO) data.
largest (>0.10) Wiberg bond orders for each atom
          total WBO             WBO to atom ...

molecular dipole:
                 x           y           z       tot (Debye)
 q only:       -0.000       0.352      -0.000
   full:       -0.000       0.340      -0.000       0.865

 projected vibrational frequencies (cm-1)
eigval :       -0.00    -0.00    -0.00     0.00     0.00     0.00
eigval :      546.26  1461.24  1548.05

   temp. (K)  partition function   enthalpy   heat capacity  entropy
                                   cal/mol     cal/K/mol   cal/K/mol   J/K/mol
  10.00  VIB   1.00                    0.000      0.000     -0.000
         ROT   16.5                   29.809      2.981      8.556
         INT   16.5                   29.809      2.981      8.556
         TR   0.174E+25               49.681      4.968     20.396
         TOT                          79.4904     7.9490    28.9521   121.1355

       T/K    H(0)-H(T)+PV         H(T)/Eh          T*S/Eh         G(T)/Eh
   ------------------------------------------------------------------------
    298.15    0.397871E-02    0.120789E-01    0.268481E-01   -0.147692E-01
    120.00    0.152368E-02    0.962383E-02    0.931690E-02    0.306927E-03
    100.00    0.126772E-02    0.936787E-02    0.753085E-02    0.183702E-02
     80.00    0.101354E-02    0.911369E-02    0.579789E-02    0.331580E-02
     60.00    0.760061E-03    0.886021E-02    0.412972E-02    0.473048E-02
     40.00    0.506704E-03    0.860685E-02    0.254776E-02    0.605909E-02
     20.00    0.253352E-03    0.835350E-02    0.109832E-02    0.725518E-02
     10.00    0.126676E-03    0.822682E-02    0.461381E-03    0.776544E-02 (used)
   ------------------------------------------------------------------------

         :::::::::::::::::::::::::::::::::::::::::::::::::::::
         ::                  THERMODYNAMIC                  ::
         :::::::::::::::::::::::::::::::::::::::::::::::::::::
         :: total free energy         -10.062836127111 Eh   ::
         ::.................................................::
         :: total energy              -10.070601569129 Eh   ::
         :: zero point energy           0.008100146830 Eh   ::
         :: G(RRHO) w/o ZPVE           -0.000334704812 Eh   ::
         :: G(RRHO) contrib.            0.007765442018 Eh   ::
         :::::::::::::::::::::::::::::::::::::::::::::::::::::

           -------------------------------------------------
          | TOTAL ENERGY              -10.070601569129 Eh   |
          | TOTAL ENTHALPY            -10.062374746283 Eh   |
          | TOTAL FREE ENERGY         -10.062836127111 Eh   |
          | GRADIENT NORM               0.000292277509 Eh/Î± |
          | HOMO-LUMO GAP               2.535990268775 eV   |
           -------------------------------------------------

 * finished run on 2020/05/12 at 11:44:49.092
