   * xtb version 6.2.2 (9d81278992624c895f80dd42a50cac0aa55982e2) compiled by '@Darwin' on 04/03/2020
          program call               : xtb --input C5_10_S_2.input C5_10_S_2.xyz --ohess --molden --namespace C5_10_S_2 output.out
          number of atoms            :                     5
          number of electrons        :                    20
          charge                     :                     0
          spin                       :                   1.0

   ID    Z sym.   atoms
    1    6 C      1-5

          :  Hamiltonian                  GFN2-xTB          :
 * total energy  :   -10.1335069 Eh     change       -0.5694503E-09 Eh
 * total energy  :   -10.1684347 Eh     change       -0.3492772E-01 Eh
 * total energy  :   -10.1862509 Eh     change       -0.1781620E-01 Eh
 * total energy  :   -10.1956586 Eh     change       -0.9407752E-02 Eh
 * total energy  :   -10.1971345 Eh     change       -0.1475883E-02 Eh
 * total energy  :   -10.1973803 Eh     change       -0.2458340E-03 Eh
 * total energy  :   -10.1974895 Eh     change       -0.1091181E-03 Eh
 * total energy  :   -10.1975212 Eh     change       -0.3170387E-04 Eh
 * total energy  :   -10.1975361 Eh     change       -0.1489937E-04 Eh
 * total energy  :   -10.1975365 Eh     change       -0.4359181E-06 Eh
 * total energy  :   -10.1975370 Eh     change       -0.4800966E-06 Eh
 * total energy  :   -10.1975385 Eh     change       -0.1515101E-05 Eh
   *** GEOMETRY OPTIMIZATION CONVERGED AFTER 12 ITERATIONS ***

 final structure:
================
5
 xtb: 6.2.2 (9d81278992624c895f80dd42a50cac0aa55982e2)
C        -0.96492229175212    0.74491539906154    0.08781229964153
C         0.35929065232757    0.85464882300488   -0.19986892935411
C         0.29735462830541   -0.87556775278709   -0.21129924027196
C         1.32388909081221   -0.04907547388370    0.24481520050914
C        -1.01561107969306   -0.67492199539563    0.07853966947540

          :  Hamiltonian                  GFN2-xTB          :
         :: gradient norm              0.000260665095 Eh/a0 ::
         :: HOMO-LUMO gap              0.774729560534 eV    ::
         :: SCC energy               -10.376220151164 Eh    ::
         :: -> dispersion             -0.002928075145 Eh    ::
         :: repulsion energy           0.178681632179 Eh    ::

    * Orbital Energies and Occupations

         #    Occupation            Energy/Eh            Energy/eV
      -------------------------------------------------------------
         1        2.0000           -0.7300913             -19.8668
         2        2.0000           -0.6644373             -18.0803
         3        2.0000           -0.6370968             -17.3363
         4        2.0000           -0.5697434             -15.5035
         5        2.0000           -0.5551860             -15.1074
         6        2.0000           -0.5483416             -14.9211
         7        2.0000           -0.4894192             -13.3178
         8        2.0000           -0.4438980             -12.0791
         9        2.0000           -0.4351582             -11.8413
        10        1.0000           -0.3996846             -10.8760
        11        1.0000           -0.3956766             -10.7669 (HOMO)
        12        0.0000           -0.3672057              -9.9922 (LUMO)
        13                         -0.2821044              -7.6765
        14                         -0.2572973              -7.0014
        15                         -0.1957690              -5.3271
        16                          0.1270928               3.4584
        17                          0.2715338               7.3888
        18                          0.2787467               7.5851
        19                          0.4787398              13.0272
        20                          0.5514545              15.0058
      -------------------------------------------------------------
                  HL-Gap            0.0284709 Eh            0.7747 eV

     #   Z        covCN         q      C6AA      Î±(0)
     1   6 C      2.309    -0.019    30.017     8.897
     2   6 C      3.204     0.054    26.224     8.342
     3   6 C      3.203     0.054    26.229     8.343
     4   6 C      1.983    -0.070    32.962     9.272
     5   6 C      2.310    -0.019    30.009     8.896

Wiberg/Mayer (AO) data.
largest (>0.10) Wiberg bond orders for each atom
          total WBO             WBO to atom ...

molecular dipole:
                 x           y           z       tot (Debye)
 q only:       -0.038       0.002      -0.080
   full:        0.001       0.001      -0.261       0.664

 projected vibrational frequencies (cm-1)
eigval :       -0.00    -0.00    -0.00    -0.00     0.00     0.00
eigval :     -377.38  -192.80   413.13   572.49   889.67  1074.48
eigval :     1257.97  1270.51  1349.37

   temp. (K)  partition function   enthalpy   heat capacity  entropy
                                   cal/mol     cal/K/mol   cal/K/mol   J/K/mol
  10.00  VIB   1.00                    0.000      0.000     -0.001
         ROT   164.                   29.809      2.981     13.113
         INT   164.                   29.809      2.981     13.112
         TR   0.277E+25               49.681      4.968     21.322
         TOT                          79.4904     7.9490    34.4343   144.0732

       T/K    H(0)-H(T)+PV         H(T)/Eh          T*S/Eh         G(T)/Eh
   ------------------------------------------------------------------------
    298.15    0.436815E-02    0.199226E-01    0.299948E-01   -0.100722E-01
    120.00    0.153633E-02    0.170908E-01    0.103806E-01    0.671021E-02
    100.00    0.127241E-02    0.168269E-01    0.841006E-02    0.841681E-02
     80.00    0.101461E-02    0.165691E-01    0.649809E-02    0.100710E-01
     60.00    0.760153E-03    0.163146E-01    0.465405E-02    0.116606E-01
     40.00    0.506705E-03    0.160612E-01    0.289724E-02    0.131639E-01
     20.00    0.253352E-03    0.158078E-01    0.127305E-02    0.145348E-01
     10.00    0.126676E-03    0.156811E-01    0.548746E-03    0.151324E-01 (used)
   ------------------------------------------------------------------------

         :::::::::::::::::::::::::::::::::::::::::::::::::::::
         ::                  THERMODYNAMIC                  ::
         :::::::::::::::::::::::::::::::::::::::::::::::::::::
         :: total free energy         -10.182406092225 Eh   ::
         ::.................................................::
         :: total energy              -10.197538487939 Eh   ::
         :: zero point energy           0.015554465460 Eh   ::
         :: G(RRHO) w/o ZPVE           -0.000422069747 Eh   ::
         :: G(RRHO) contrib.            0.015132395713 Eh   ::
         :::::::::::::::::::::::::::::::::::::::::::::::::::::

           -------------------------------------------------
          | TOTAL ENERGY              -10.197538487939 Eh   |
          | TOTAL ENTHALPY            -10.181857346463 Eh   |
          | TOTAL FREE ENERGY         -10.182406092225 Eh   |
          | GRADIENT NORM               0.000260583459 Eh/Î± |
          | HOMO-LUMO GAP               0.774732048146 eV   |
           -------------------------------------------------

 * finished run on 2020/05/12 at 11:44:36.008
