   * xtb version 6.2.2 (9d81278992624c895f80dd42a50cac0aa55982e2) compiled by '@Darwin' on 04/03/2020
          program call               : xtb --input C3O1_2_S_2.input C3O1_2_S_2.xyz --ohess --molden --namespace C3O1_2_S_2 output.out
          number of atoms            :                     4
          number of electrons        :                    18
          charge                     :                     0
          spin                       :                   1.0

   ID    Z sym.   atoms
    1    6 C      1, 3, 4
    2    8 O      2

          :  Hamiltonian                  GFN2-xTB          :
 * total energy  :    -9.9859029 Eh     change        0.3849401E-09 Eh
 * total energy  :   -10.0719783 Eh     change       -0.8607533E-01 Eh
 * total energy  :   -10.0566553 Eh     change        0.1532299E-01 Eh
 * total energy  :   -10.1050543 Eh     change       -0.4839903E-01 Eh
 * total energy  :   -10.1078044 Eh     change       -0.2750081E-02 Eh
 * total energy  :   -10.1098798 Eh     change       -0.2075445E-02 Eh
 * total energy  :   -10.1105672 Eh     change       -0.6873504E-03 Eh
 * total energy  :   -10.1107801 Eh     change       -0.2129592E-03 Eh
 * total energy  :   -10.1108107 Eh     change       -0.3055019E-04 Eh
 * total energy  :   -10.1108118 Eh     change       -0.1112039E-05 Eh
   *** GEOMETRY OPTIMIZATION CONVERGED AFTER 10 ITERATIONS ***

 final structure:
================
4
 xtb: 6.2.2 (9d81278992624c895f80dd42a50cac0aa55982e2)
C        -1.73460326447685   -0.19068792795603   -0.40218567262594
O        -0.64742089796479   -0.07119486602049    0.12055338695195
C         0.63221859638904    0.06952196152363   -0.11293758315658
C         1.74980556605260    0.19235983245289    0.39456986883056

          :  Hamiltonian                  GFN2-xTB          :
         :: gradient norm              0.000549914312 Eh/a0 ::
         :: HOMO-LUMO gap              0.546033480246 eV    ::
         :: SCC energy               -10.253758393505 Eh    ::
         :: -> dispersion             -0.001677809839 Eh    ::
         :: repulsion energy           0.142946670996 Eh    ::

    * Orbital Energies and Occupations

         #    Occupation            Energy/Eh            Energy/eV
      -------------------------------------------------------------
         1        2.0000           -0.8094525             -22.0263
         2        2.0000           -0.7512778             -20.4433
         3        2.0000           -0.6527613             -17.7625
         4        2.0000           -0.6485035             -17.6467
         5        2.0000           -0.6416469             -17.4601
         6        2.0000           -0.4931424             -13.4191
         7        2.0000           -0.4740443             -12.8994
         8        2.0000           -0.4639027             -12.6234
         9        1.0000           -0.4264501             -11.6043
        10        1.0000           -0.3319385              -9.0325 (HOMO)
        11        0.0000           -0.3118721              -8.4865 (LUMO)
        12                         -0.2221713              -6.0456
        13                         -0.1819149              -4.9502
        14                          0.0842219               2.2918
        15                          0.6395211              17.4023
        16                          0.9481957              25.8017
Molecule has the following symmetry elements: (sigma)
It seems to be the Cs point group
      -------------------------------------------------------------
                  HL-Gap            0.0200664 Eh            0.5460 eV

     #   Z        covCN         q      C6AA      Î±(0)
     1   6 C      0.872    -0.076    37.531    10.232
     2   8 O      1.711     0.082    13.469     4.955
     3   6 C      1.852     0.091    28.867     8.679
     4   6 C      0.981    -0.097    38.986    10.487

Wiberg/Mayer (AO) data.
largest (>0.10) Wiberg bond orders for each atom
          total WBO             WBO to atom ...

molecular dipole:
                 x           y           z       tot (Debye)
 q only:       -0.061      -0.007      -0.015
   full:        0.197       0.022       0.004       0.503

 projected vibrational frequencies (cm-1)
eigval :       -0.00    -0.00    -0.00     0.00     0.00     0.00
eigval :      184.81   252.77   485.86   873.47  1536.37  1884.21

   temp. (K)  partition function   enthalpy   heat capacity  entropy
                                   cal/mol     cal/K/mol   cal/K/mol   J/K/mol
  10.00  VIB   1.00                    0.000      0.000     -0.008
         ROT   53.0                   29.809      2.981     10.870
         INT   53.0                   29.809      2.981     10.861
         TR   0.223E+25               49.681      4.968     20.895
         TOT                          79.4904     7.9490    31.7560   132.8673

       T/K    H(0)-H(T)+PV         H(T)/Eh          T*S/Eh         G(T)/Eh
   ------------------------------------------------------------------------
    298.15    0.514404E-02    0.170304E-01    0.302166E-01   -0.131862E-01
    120.00    0.168829E-02    0.135746E-01    0.100834E-01    0.349123E-02
    100.00    0.136337E-02    0.132497E-01    0.810695E-02    0.514273E-02
     80.00    0.105758E-02    0.129439E-01    0.621300E-02    0.673088E-02
     60.00    0.772904E-03    0.126592E-01    0.441450E-02    0.824472E-02
     40.00    0.507928E-03    0.123942E-01    0.272849E-02    0.966574E-02
     20.00    0.253353E-03    0.121397E-01    0.118784E-02    0.109518E-01
     10.00    0.126676E-03    0.120130E-01    0.506065E-03    0.115069E-01 (used)
   ------------------------------------------------------------------------

         :::::::::::::::::::::::::::::::::::::::::::::::::::::
         ::                  THERMODYNAMIC                  ::
         :::::::::::::::::::::::::::::::::::::::::::::::::::::
         :: total free energy         -10.099304872843 Eh   ::
         ::.................................................::
         :: total energy              -10.110811790978 Eh   ::
         :: zero point energy           0.011886306900 Eh   ::
         :: G(RRHO) w/o ZPVE           -0.000379388766 Eh   ::
         :: G(RRHO) contrib.            0.011506918134 Eh   ::
         :::::::::::::::::::::::::::::::::::::::::::::::::::::

           -------------------------------------------------
          | TOTAL ENERGY              -10.110811790978 Eh   |
          | TOTAL ENTHALPY            -10.098798808062 Eh   |
          | TOTAL FREE ENERGY         -10.099304872843 Eh   |
          | GRADIENT NORM               0.000550173325 Eh/Î± |
          | HOMO-LUMO GAP               0.546033527045 eV   |
           -------------------------------------------------

 * finished run on 2020/05/12 at 11:45:18.265
