   * xtb version 6.2.2 (9d81278992624c895f80dd42a50cac0aa55982e2) compiled by '@Darwin' on 04/03/2020
          program call               : xtb --input C4N1_15_S_1.input C4N1_15_S_1.xyz --ohess --molden --namespace C4N1_15_S_1 output.out
          number of atoms            :                     5
          number of electrons        :                    21
          charge                     :                     0
          spin                       :                   0.5

   ID    Z sym.   atoms
    1    7 N      1
    2    6 C      2-5

          :  Hamiltonian                  GFN2-xTB          :
 * total energy  :   -10.9182204 Eh     change       -0.3068035E-09 Eh
 * total energy  :   -10.9985080 Eh     change       -0.8028762E-01 Eh
 * total energy  :   -11.0293886 Eh     change       -0.3088064E-01 Eh
 * total energy  :   -11.0354160 Eh     change       -0.6027396E-02 Eh
 * total energy  :   -11.0396033 Eh     change       -0.4187246E-02 Eh
 * total energy  :   -11.0439891 Eh     change       -0.4385845E-02 Eh
 * total energy  :   -11.0475281 Eh     change       -0.3539018E-02 Eh
 * total energy  :   -11.0483233 Eh     change       -0.7952120E-03 Eh
 * total energy  :   -11.0489086 Eh     change       -0.5853070E-03 Eh
 * total energy  :   -11.0491060 Eh     change       -0.1973461E-03 Eh
 * total energy  :   -11.0492371 Eh     change       -0.1311367E-03 Eh
 * total energy  :   -11.0492520 Eh     change       -0.1482466E-04 Eh
 * total energy  :   -11.0492642 Eh     change       -0.1222242E-04 Eh
 * total energy  :   -11.0492732 Eh     change       -0.9061142E-05 Eh
 * total energy  :   -11.0492750 Eh     change       -0.1785968E-05 Eh
   *** GEOMETRY OPTIMIZATION CONVERGED AFTER 15 ITERATIONS ***

 final structure:
================
5
 xtb: 6.2.2 (9d81278992624c895f80dd42a50cac0aa55982e2)
N        -0.53369682789503   -0.82834556925637    0.34642385498956
C         0.61033823288342   -0.04078235627064    0.06009633595184
C        -0.53863941902640    0.86755570473300    0.20164599182508
C         1.84570616570470    0.11027519030271   -0.24180955372189
C        -1.38370815166668   -0.10870296950870   -0.36635562904459

          :  Hamiltonian                  GFN2-xTB          :
         :: gradient norm              0.000211307911 Eh/a0 ::
         :: HOMO-LUMO gap              1.101427590632 eV    ::
         :: SCC energy               -11.211329647507 Eh    ::
         :: -> dispersion             -0.002874731248 Eh    ::
         :: repulsion energy           0.162054592877 Eh    ::

    * Orbital Energies and Occupations

         #    Occupation            Energy/Eh            Energy/eV
      -------------------------------------------------------------
         1        2.0000           -0.7723831             -21.0176
         2        2.0000           -0.6988856             -19.0176
         3        2.0000           -0.6492805             -17.6678
         4        2.0000           -0.6448432             -17.5471
         5        2.0000           -0.5948310             -16.1862
         6        2.0000           -0.5644761             -15.3602
         7        2.0000           -0.5079141             -13.8210
         8        2.0000           -0.4929482             -13.4138
         9        2.0000           -0.4713708             -12.8267
        10        2.0000           -0.4555609             -12.3964
        11        1.0000           -0.4276959             -11.6382 (HOMO)
        12                         -0.3872196             -10.5368 (LUMO)
        13                         -0.3222206              -8.7681
        14                         -0.2936603              -7.9909
        15                         -0.2268184              -6.1720
        16                          0.0064308               0.1750
        17                          0.0802739               2.1844
        18                          0.1403638               3.8195
        19                          0.3783095              10.2943
        20                          0.7813939              21.2628
      -------------------------------------------------------------
                  HL-Gap            0.0404762 Eh            1.1014 eV

     #   Z        covCN         q      C6AA      Î±(0)
     1   7 N      2.646    -0.067    22.549     7.053
     2   6 C      3.275     0.164    23.249     7.766
     3   6 C      2.788    -0.019    28.460     8.739
     4   6 C      0.983    -0.111    39.468    10.553
     5   6 C      2.298     0.032    28.867     8.721

Wiberg/Mayer (AO) data.
largest (>0.10) Wiberg bond orders for each atom
          total WBO             WBO to atom ...

molecular dipole:
                 x           y           z       tot (Debye)
 q only:       -0.194       0.032      -0.004
   full:       -0.392      -0.271       0.018       1.211

 projected vibrational frequencies (cm-1)
eigval :       -0.00    -0.00     0.00     0.00     0.00     0.00
eigval :      218.73   256.55   431.43   498.16   784.41   972.52
eigval :     1030.96  1426.43  1708.26

   temp. (K)  partition function   enthalpy   heat capacity  entropy
                                   cal/mol     cal/K/mol   cal/K/mol   J/K/mol
  10.00  VIB   1.00                    0.000      0.000     -0.006
         ROT   197.                   29.809      2.981     13.477
         INT   197.                   29.809      2.981     13.471
         TR   0.290E+25               49.681      4.968     21.419
         TOT                          79.4904     7.9490    34.8906   145.9823

       T/K    H(0)-H(T)+PV         H(T)/Eh          T*S/Eh         G(T)/Eh
   ------------------------------------------------------------------------
    298.15    0.545705E-02    0.221502E-01    0.320602E-01   -0.991002E-02
    120.00    0.167206E-02    0.183652E-01    0.106518E-01    0.771339E-02
    100.00    0.134719E-02    0.180403E-01    0.858075E-02    0.945959E-02
     80.00    0.104614E-02    0.177393E-01    0.659631E-02    0.111430E-01
     60.00    0.767912E-03    0.174611E-01    0.470754E-02    0.127535E-01
     40.00    0.507201E-03    0.172004E-01    0.292724E-02    0.142731E-01
     20.00    0.253352E-03    0.169465E-01    0.128769E-02    0.156588E-01
     10.00    0.126676E-03    0.168198E-01    0.556017E-03    0.162638E-01 (used)
   ------------------------------------------------------------------------

         :::::::::::::::::::::::::::::::::::::::::::::::::::::
         ::                  THERMODYNAMIC                  ::
         :::::::::::::::::::::::::::::::::::::::::::::::::::::
         :: total free energy         -11.033011209312 Eh   ::
         ::.................................................::
         :: total energy              -11.049275021541 Eh   ::
         :: zero point energy           0.016693153381 Eh   ::
         :: G(RRHO) w/o ZPVE           -0.000429341153 Eh   ::
         :: G(RRHO) contrib.            0.016263812229 Eh   ::
         :::::::::::::::::::::::::::::::::::::::::::::::::::::

           -------------------------------------------------
          | TOTAL ENERGY              -11.049275021541 Eh   |
          | TOTAL ENTHALPY            -11.032455192143 Eh   |
          | TOTAL FREE ENERGY         -11.033011209312 Eh   |
          | GRADIENT NORM               0.000211498665 Eh/Î± |
          | HOMO-LUMO GAP               1.101413818774 eV   |
           -------------------------------------------------

 * finished run on 2020/05/12 at 11:44:04.557
