   * xtb version 6.2.2 (9d81278992624c895f80dd42a50cac0aa55982e2) compiled by '@Darwin' on 04/03/2020
          program call               : xtb --input H1C3N1_21_S_2.input H1C3N1_21_S_2.xyz --ohess --molden --namespace H1C3N1_21_S_2 output.out
          number of atoms            :                     5
          number of electrons        :                    18
          charge                     :                     0
          spin                       :                   1.0

   ID    Z sym.   atoms
    1    7 N      1
    2    6 C      2-4
    3    1 H      5

          :  Hamiltonian                  GFN2-xTB          :
 * total energy  :    -9.3792009 Eh     change       -0.2463322E-08 Eh
 * total energy  :    -9.4355000 Eh     change       -0.5629911E-01 Eh
 * total energy  :    -8.7346808 Eh     change        0.7008193E+00 Eh
 * total energy  :    -9.4644838 Eh     change       -0.7298031E+00 Eh
 * total energy  :    -9.4737517 Eh     change       -0.9267922E-02 Eh
 * total energy  :    -9.4796483 Eh     change       -0.5896575E-02 Eh
 * total energy  :    -9.4799248 Eh     change       -0.2764908E-03 Eh
 * total energy  :    -9.4800488 Eh     change       -0.1239616E-03 Eh
 * total energy  :    -9.4800774 Eh     change       -0.2862097E-04 Eh
 * total energy  :    -9.4801064 Eh     change       -0.2899466E-04 Eh
 * total energy  :    -9.4801209 Eh     change       -0.1456106E-04 Eh
 * total energy  :    -9.4801261 Eh     change       -0.5107215E-05 Eh
 * total energy  :    -9.4801270 Eh     change       -0.9473126E-06 Eh
 * total energy  :    -9.4801278 Eh     change       -0.8277577E-06 Eh
   *** GEOMETRY OPTIMIZATION CONVERGED AFTER 14 ITERATIONS ***

 final structure:
================
5
 xtb: 6.2.2 (9d81278992624c895f80dd42a50cac0aa55982e2)
N         1.28828456811763   -0.79199679002203    0.03965127117913
C         0.40301564769646    0.03675994721088   -0.00369867098067
C        -1.15554188297607   -0.14280875687650    0.63976533836447
C        -1.16229197331014   -0.21425148601046   -0.60943284984805
H         0.62653364047212    1.11229608569811   -0.06628508871487

          :  Hamiltonian                  GFN2-xTB          :
         :: gradient norm              0.000625049943 Eh/a0 ::
         :: HOMO-LUMO gap              1.564129801713 eV    ::
         :: SCC energy                -9.648495703037 Eh    ::
         :: -> dispersion             -0.002014098472 Eh    ::
         :: repulsion energy           0.168367819251 Eh    ::

    * Orbital Energies and Occupations

         #    Occupation            Energy/Eh            Energy/eV
      -------------------------------------------------------------
         1        2.0000           -0.7071156             -19.2416
         2        2.0000           -0.6812884             -18.5388
         3        2.0000           -0.6067941             -16.5117
         4        2.0000           -0.5603146             -15.2469
         5        2.0000           -0.5562805             -15.1372
         6        2.0000           -0.4930667             -13.4170
         7        2.0000           -0.4848208             -13.1926
         8        2.0000           -0.4545077             -12.3678
         9        1.0000           -0.4189251             -11.3995
        10        1.0000           -0.3915341             -10.6542 (HOMO)
        11                         -0.3340533              -9.0901 (LUMO)
        12                         -0.2356972              -6.4136
        13                         -0.1192221              -3.2442
        14                         -0.0996494              -2.7116
        15                          0.1457851               3.9670
        16                          0.6021769              16.3861
        17                          0.7208826              19.6162
      -------------------------------------------------------------
                  HL-Gap            0.0574808 Eh            1.5641 eV

     #   Z        covCN         q      C6AA      Î±(0)
     1   7 N      0.911    -0.178    24.854     7.210
     2   6 C      3.690     0.162    18.165     6.099
     3   6 C      1.910    -0.051    32.472     9.203
     4   6 C      1.909    -0.051    32.479     9.204
     5   1 H      0.923     0.118     1.630     1.997

Wiberg/Mayer (AO) data.
largest (>0.10) Wiberg bond orders for each atom
          total WBO             WBO to atom ...

molecular dipole:
                 x           y           z       tot (Debye)
 q only:        0.052       0.560      -0.032
   full:       -0.141       0.867      -0.048       2.237

 projected vibrational frequencies (cm-1)
eigval :       -0.00    -0.00    -0.00    -0.00     0.00     0.00
eigval :     -533.56   125.91   359.63   596.51   764.43  1066.28
eigval :     1758.65  1931.47  2759.76

   temp. (K)  partition function   enthalpy   heat capacity  entropy
                                   cal/mol     cal/K/mol   cal/K/mol   J/K/mol
  10.00  VIB   1.00                    0.000      0.000     -0.019
         ROT   120.                   29.809      2.981     12.493
         INT   120.                   29.809      2.981     12.474
         TR   0.217E+25               49.681      4.968     20.838
         TOT                          79.4904     7.9490    33.3120   139.3774

       T/K    H(0)-H(T)+PV         H(T)/Eh          T*S/Eh         G(T)/Eh
   ------------------------------------------------------------------------
    298.15    0.509599E-02    0.264257E-01    0.309803E-01   -0.455466E-02
    120.00    0.170764E-02    0.230373E-01    0.104398E-01    0.125975E-01
    100.00    0.138871E-02    0.227184E-01    0.840977E-02    0.143086E-01
     80.00    0.108253E-02    0.224122E-01    0.645510E-02    0.159571E-01
     60.00    0.789811E-03    0.221195E-01    0.458915E-02    0.175303E-01
     40.00    0.512968E-03    0.218426E-01    0.283529E-02    0.190073E-01
     20.00    0.253419E-03    0.215831E-01    0.123789E-02    0.203452E-01
     10.00    0.126676E-03    0.214563E-01    0.530861E-03    0.209255E-01 (used)
   ------------------------------------------------------------------------

         :::::::::::::::::::::::::::::::::::::::::::::::::::::
         ::                  THERMODYNAMIC                  ::
         :::::::::::::::::::::::::::::::::::::::::::::::::::::
         :: total free energy          -9.459202347095 Eh   ::
         ::.................................................::
         :: total energy               -9.480127826916 Eh   ::
         :: zero point energy           0.021329664312 Eh   ::
         :: G(RRHO) w/o ZPVE           -0.000404184491 Eh   ::
         :: G(RRHO) contrib.            0.020925479821 Eh   ::
         :::::::::::::::::::::::::::::::::::::::::::::::::::::

           -------------------------------------------------
          | TOTAL ENERGY               -9.480127826916 Eh   |
          | TOTAL ENTHALPY             -9.458671486581 Eh   |
          | TOTAL FREE ENERGY          -9.459202347095 Eh   |
          | GRADIENT NORM               0.000625062436 Eh/Î± |
          | HOMO-LUMO GAP               1.564130864487 eV   |
           -------------------------------------------------

 * finished run on 2020/05/12 at 11:44:58.865
