   * xtb version 6.2.2 (9d81278992624c895f80dd42a50cac0aa55982e2) compiled by '@Darwin' on 04/03/2020
          program call               : xtb --input H4C1_0_S_0.input H4C1_0_S_0.xyz --ohess --molden --namespace H4C1_0_S_0 output.out
          number of atoms            :                     5
          number of electrons        :                     8
          charge                     :                     0
          spin                       :                   0.0

   ID    Z sym.   atoms
    1    6 C      1
    2    1 H      2-5

          :  Hamiltonian                  GFN2-xTB          :
 * total energy  :    -4.1733985 Eh     change        0.1103801E-09 Eh
 * total energy  :    -4.1751847 Eh     change       -0.1786187E-02 Eh
 * total energy  :    -4.1752182 Eh     change       -0.3354352E-04 Eh
 * total energy  :    -4.1752184 Eh     change       -0.2120509E-06 Eh
   *** GEOMETRY OPTIMIZATION CONVERGED AFTER 4 ITERATIONS ***

 final structure:
================
5
 xtb: 6.2.2 (9d81278992624c895f80dd42a50cac0aa55982e2)
C        -0.00000000714699   -0.00000000338596    0.00000000659724
H        -0.67184372246593    0.84818657052554   -0.02569282211966
H        -0.43141075304262   -0.81908024157065   -0.56075564017384
H         0.15422006336619   -0.30713045012448    1.02632433461833
H         0.94903441928934    0.27802412455555   -0.43987587892206

          :  Hamiltonian                  GFN2-xTB          :
         :: gradient norm              0.000237392687 Eh/a0 ::
         :: HOMO-LUMO gap             17.344286642343 eV    ::
         :: SCC energy                -4.247369122263 Eh    ::
         :: -> dispersion             -0.000661040232 Eh    ::
         :: repulsion energy           0.072150674026 Eh    ::

    * Orbital Energies and Occupations

         #    Occupation            Energy/Eh            Energy/eV
      -------------------------------------------------------------
         1        2.0000           -0.5818053             -15.8317
         2        2.0000           -0.4674450             -12.7198
         3        2.0000           -0.4674450             -12.7198
         4        2.0000           -0.4674450             -12.7198 (HOMO)
         5                          0.1699458               4.6245 (LUMO)
         6                          0.2289731               6.2307
         7                          0.2289731               6.2307
         8                          0.2289731               6.2307
      -------------------------------------------------------------
                  HL-Gap            0.6373908 Eh           17.3443 eV

     #   Z        covCN         q      C6AA      α(0)
     1   6 C      3.702    -0.156    23.686     6.959
     2   1 H      0.925     0.039     2.463     2.454
     3   1 H      0.925     0.039     2.463     2.454
     4   1 H      0.925     0.039     2.463     2.454
     5   1 H      0.925     0.039     2.463     2.454

Wiberg/Mayer (AO) data.
largest (>0.10) Wiberg bond orders for each atom
          total WBO             WBO to atom ...

molecular dipole:
                 x           y           z       tot (Debye)
 q only:        0.000       0.000      -0.000
   full:        0.000       0.000      -0.000       0.000

 projected vibrational frequencies (cm-1)
eigval :       -0.00    -0.00    -0.00    -0.00     0.00     0.00
eigval :     1385.87  1385.99  1386.05  1557.33  1557.33  3088.89
eigval :     3102.25  3102.36  3102.64

   temp. (K)  partition function   enthalpy   heat capacity  entropy
                                   cal/mol     cal/K/mol   cal/K/mol   J/K/mol
  10.00  VIB   1.00                    0.000      0.000     -0.000
         ROT  0.218                   29.809      2.981     -0.042
         INT  0.218                   29.809      2.981     -0.042
         TR   0.382E+24               49.681      4.968     17.389
         TOT                          79.4904     7.9490    17.3472    72.5808

       T/K    H(0)-H(T)+PV         H(T)/Eh          T*S/Eh         G(T)/Eh
   ------------------------------------------------------------------------
    298.15    0.380822E-02    0.486169E-01    0.210967E-01    0.275202E-01
    120.00    0.152011E-02    0.463288E-01    0.709354E-02    0.392352E-01
    100.00    0.126676E-02    0.460754E-01    0.568039E-02    0.403950E-01
     80.00    0.101341E-02    0.458220E-01    0.431825E-02    0.415038E-01
     60.00    0.760056E-03    0.455687E-01    0.302010E-02    0.425486E-01
     40.00    0.506704E-03    0.453153E-01    0.180801E-02    0.435073E-01
     20.00    0.253352E-03    0.450620E-01    0.728448E-03    0.443335E-01
     10.00    0.126676E-03    0.449353E-01    0.276446E-03    0.446589E-01 (used)
   ------------------------------------------------------------------------

         :::::::::::::::::::::::::::::::::::::::::::::::::::::
         ::                  THERMODYNAMIC                  ::
         :::::::::::::::::::::::::::::::::::::::::::::::::::::
         :: total free energy          -4.130559573796 Eh   ::
         ::.................................................::
         :: total energy               -4.175218442642 Eh   ::
         :: zero point energy           0.044808638413 Eh   ::
         :: G(RRHO) w/o ZPVE           -0.000149769567 Eh   ::
         :: G(RRHO) contrib.            0.044658868846 Eh   ::
         :::::::::::::::::::::::::::::::::::::::::::::::::::::

           -------------------------------------------------
          | TOTAL ENERGY               -4.175218442642 Eh   |
          | TOTAL ENTHALPY             -4.130283128213 Eh   |
          | TOTAL FREE ENERGY          -4.130559573796 Eh   |
          | GRADIENT NORM               0.000237393341 Eh/α |
          | HOMO-LUMO GAP              17.344286614004 eV   |
           -------------------------------------------------

 * finished run on 2020/05/12 at 11:45:15.942
