   * xtb version 6.2.2 (9d81278992624c895f80dd42a50cac0aa55982e2) compiled by '@Darwin' on 04/03/2020
          program call               : xtb --input C4N1_8_S_3.input C4N1_8_S_3.xyz --ohess --molden --namespace C4N1_8_S_3 output.out
          number of atoms            :                     5
          number of electrons        :                    21
          charge                     :                     0
          spin                       :                   1.5

   ID    Z sym.   atoms
    1    6 C      1-3, 5
    2    7 N      4

          :  Hamiltonian                  GFN2-xTB          :
 * total energy  :   -10.8526594 Eh     change       -0.2519389E-09 Eh
 * total energy  :   -10.9883268 Eh     change       -0.1356674E+00 Eh
 * total energy  :   -11.0091098 Eh     change       -0.2078302E-01 Eh
 * total energy  :   -11.0694448 Eh     change       -0.6033498E-01 Eh
 * total energy  :   -11.0763251 Eh     change       -0.6880333E-02 Eh
 * total energy  :   -11.0937493 Eh     change       -0.1742417E-01 Eh
 * total energy  :   -11.0934967 Eh     change        0.2525937E-03 Eh
 * total energy  :   -11.1011059 Eh     change       -0.7609234E-02 Eh
 * total energy  :   -11.1002462 Eh     change        0.8596842E-03 Eh
 * total energy  :   -11.1116784 Eh     change       -0.1143217E-01 Eh
 * total energy  :   -11.1308373 Eh     change       -0.2460792E-03 Eh
 * total energy  :   -11.1308884 Eh     change       -0.5105549E-04 Eh
 * total energy  :   -11.1306093 Eh     change        0.2791034E-03 Eh
 * total energy  :   -11.1309912 Eh     change       -0.3818939E-03 Eh
 * total energy  :   -11.1310131 Eh     change       -0.2189558E-04 Eh
 * total energy  :   -11.1310306 Eh     change       -0.1749802E-04 Eh
 * total energy  :   -11.1310843 Eh     change       -0.5376987E-04 Eh
 * total energy  :   -11.1310934 Eh     change       -0.9054970E-05 Eh
 * total energy  :   -11.1310964 Eh     change       -0.2958539E-05 Eh
   *** GEOMETRY OPTIMIZATION CONVERGED AFTER 29 ITERATIONS ***

 final structure:
================
5
 xtb: 6.2.2 (9d81278992624c895f80dd42a50cac0aa55982e2)
C        -1.31207577798361   -0.08151791235028    0.00698066701791
C        -0.01090182729175    0.00927915671984   -0.00118303728359
C         1.28456684671724    0.07483553016764   -0.00643160577463
N        -2.48324847569579   -0.14802151428213    0.01648422295956
C         2.52165923425395    0.14542473974495   -0.01585024691925

          :  Hamiltonian                  GFN2-xTB          :
         :: gradient norm              0.000944092025 Eh/a0 ::
         :: HOMO-LUMO gap              4.159223308222 eV    ::
         :: SCC energy               -11.421296311877 Eh    ::
         :: -> dispersion             -0.002586877975 Eh    ::
         :: repulsion energy           0.290201085996 Eh    ::

    * Orbital Energies and Occupations

         #    Occupation            Energy/Eh            Energy/eV
      -------------------------------------------------------------
         1        2.0000           -0.6760138             -18.3953
         2        2.0000           -0.6716044             -18.2753
         3        2.0000           -0.6486820             -17.6515
         4        2.0000           -0.5980079             -16.2726
         5        2.0000           -0.5322705             -14.4838
         6        2.0000           -0.5322703             -14.4838
         7        2.0000           -0.4893898             -13.3170
         8        2.0000           -0.4893878             -13.3169
         9        2.0000           -0.4640168             -12.6265
        10        1.0000           -0.4417476             -12.0206
        11        1.0000           -0.3900982             -10.6151
        12        1.0000           -0.3900885             -10.6148 (HOMO)
        13                         -0.2372399              -6.4556 (LUMO)
        14                         -0.2372271              -6.4553
        15                         -0.1014906              -2.7617
        16                         -0.1014543              -2.7607
        17                          0.0923877               2.5140
        18                          0.5199865              14.1496
        19                          1.0734082              29.2089
        20                          1.4590081              39.7016
      -------------------------------------------------------------
                  HL-Gap            0.1528486 Eh            4.1592 eV

     #   Z        covCN         q      C6AA      Î±(0)
     1   6 C      1.892     0.134    27.848     8.523
     2   6 C      1.965     0.022    30.508     8.920
     3   6 C      1.962     0.048    29.848     8.823
     4   7 N      0.912    -0.172    24.715     7.189
     5   6 C      0.983    -0.031    36.888    10.202

Wiberg/Mayer (AO) data.
largest (>0.10) Wiberg bond orders for each atom
          total WBO             WBO to atom ...

molecular dipole:
                 x           y           z       tot (Debye)
 q only:        0.441       0.026      -0.003
   full:        0.819       0.046      -0.006       2.086

 projected vibrational frequencies (cm-1)
eigval :       -0.00    -0.00    -0.00    -0.00     0.00     0.00
eigval :      115.69   265.36   302.81   378.87   410.92   796.74
eigval :     1627.12  1906.44  2114.89

   temp. (K)  partition function   enthalpy   heat capacity  entropy
                                   cal/mol     cal/K/mol   cal/K/mol   J/K/mol
  10.00  VIB   1.00                    0.000      0.000     -0.026
         ROT   3.86                   29.809      2.981      5.668
         INT   3.86                   29.809      2.981      5.641
         TR   0.290E+25               49.681      4.968     21.419
         TOT                          79.4904     7.9491    27.0605   113.2210

       T/K    H(0)-H(T)+PV         H(T)/Eh          T*S/Eh         G(T)/Eh
   ------------------------------------------------------------------------
    298.15    0.607670E-02    0.241171E-01    0.296657E-01   -0.554856E-02
    120.00    0.181807E-02    0.198585E-01    0.939876E-02    0.104598E-01
    100.00    0.144747E-02    0.194879E-01    0.749557E-02    0.119924E-01
     80.00    0.110796E-02    0.191484E-01    0.569444E-02    0.134540E-01
     60.00    0.798489E-03    0.188389E-01    0.400458E-02    0.148344E-01
     40.00    0.515165E-03    0.185556E-01    0.244047E-02    0.161151E-01
     20.00    0.253480E-03    0.182939E-01    0.103896E-02    0.172550E-01
     10.00    0.126676E-03    0.181671E-01    0.431236E-03    0.177359E-01 (used)
   ------------------------------------------------------------------------

         :::::::::::::::::::::::::::::::::::::::::::::::::::::
         ::                  THERMODYNAMIC                  ::
         :::::::::::::::::::::::::::::::::::::::::::::::::::::
         :: total free energy         -11.113360479023 Eh   ::
         ::.................................................::
         :: total energy              -11.131096362466 Eh   ::
         :: zero point energy           0.018040443280 Eh   ::
         :: G(RRHO) w/o ZPVE           -0.000304559838 Eh   ::
         :: G(RRHO) contrib.            0.017735883443 Eh   ::
         :::::::::::::::::::::::::::::::::::::::::::::::::::::

           -------------------------------------------------
          | TOTAL ENERGY              -11.131096362466 Eh   |
          | TOTAL ENTHALPY            -11.112929243139 Eh   |
          | TOTAL FREE ENERGY         -11.113360479023 Eh   |
          | GRADIENT NORM               0.000943604248 Eh/Î± |
          | HOMO-LUMO GAP               4.159223062923 eV   |
           -------------------------------------------------

 * finished run on 2020/05/12 at 11:44:01.144
