   * xtb version 6.2.2 (9d81278992624c895f80dd42a50cac0aa55982e2) compiled by '@Darwin' on 04/03/2020
          program call               : xtb --input H3C1N1_0_S_0.input H3C1N1_0_S_0.xyz --ohess --molden --namespace H3C1N1_0_S_0 output.out
          number of atoms            :                     5
          number of electrons        :                    12
          charge                     :                     0
          spin                       :                   0.0

   ID    Z sym.   atoms
    1    6 C      1
    2    7 N      2
    3    1 H      3-5

          :  Hamiltonian                  GFN2-xTB          :
 * total energy  :    -6.4093715 Eh     change        0.7162360E-10 Eh
 * total energy  :    -6.4148082 Eh     change       -0.5436688E-02 Eh
 * total energy  :    -6.4157299 Eh     change       -0.9216874E-03 Eh
 * total energy  :    -6.4158492 Eh     change       -0.1192859E-03 Eh
 * total energy  :    -6.4158605 Eh     change       -0.1133236E-04 Eh
 * total energy  :    -6.4158606 Eh     change       -0.6779643E-07 Eh
   *** GEOMETRY OPTIMIZATION CONVERGED AFTER 6 ITERATIONS ***

 final structure:
================
5
 xtb: 6.2.2 (9d81278992624c895f80dd42a50cac0aa55982e2)
C        -0.02849311764883    0.00056189319845   -0.00280299399822
N         1.31423929125737   -0.02591725497769    0.12928763396259
H        -0.53126549699785   -0.15826921138386    0.96821854215444
H        -0.37420375119065    0.97116034248007   -0.40194334105275
H        -0.38027692542004   -0.78753576931696   -0.69275984106605

          :  Hamiltonian                  GFN2-xTB          :
         :: gradient norm              0.000095868921 Eh/a0 ::
         :: HOMO-LUMO gap              0.000000071796 eV    ::
         :: SCC energy                -6.484938159425 Eh    ::
         :: -> dispersion             -0.000920414028 Eh    ::
         :: repulsion energy           0.069077550652 Eh    ::

    * Orbital Energies and Occupations

         #    Occupation            Energy/Eh            Energy/eV
      -------------------------------------------------------------
         1        2.0000           -0.6444354             -17.5360
         2        2.0000           -0.5746301             -15.6365
         3        2.0000           -0.5238264             -14.2540
         4        2.0000           -0.5238264             -14.2540
         5        2.0000           -0.4300949             -11.7035
         6        1.0000           -0.3641543              -9.9091 (HOMO)
         7        1.0000           -0.3641542              -9.9091 (LUMO)
         8                          0.1237947               3.3686
         9                          0.1739006               4.7321
        10                          0.1739006               4.7321
        11                          0.2569535               6.9921
      -------------------------------------------------------------
                  HL-Gap            0.0000000 Eh            0.0000 eV

     #   Z        covCN         q      C6AA      Î±(0)
     1   6 C      3.677    -0.001    20.823     6.537
     2   7 N      0.910    -0.260    26.757     7.482
     3   1 H      0.922     0.087     1.907     2.160
     4   1 H      0.922     0.087     1.907     2.160
     5   1 H      0.922     0.087     1.907     2.160

Wiberg/Mayer (AO) data.
largest (>0.10) Wiberg bond orders for each atom
          total WBO             WBO to atom ...

molecular dipole:
                 x           y           z       tot (Debye)
 q only:       -0.858       0.017      -0.084
   full:       -1.277       0.025      -0.126       3.263

 projected vibrational frequencies (cm-1)
eigval :       -0.00    -0.00    -0.00    -0.00     0.00     0.00
eigval :      862.02   862.14  1270.30  1306.33  1317.39  1318.72
eigval :     2769.90  2770.17  2819.16

   temp. (K)  partition function   enthalpy   heat capacity  entropy
                                   cal/mol     cal/K/mol   cal/K/mol   J/K/mol
  10.00  VIB   1.00                    0.000      0.000     -0.000
         ROT   4.71                   29.809      2.981      6.061
         INT   4.71                   29.809      2.981      6.061
         TR   0.930E+24               49.681      4.968     19.157
         TOT                          79.4904     7.9490    25.2179   105.5118

       T/K    H(0)-H(T)+PV         H(T)/Eh          T*S/Eh         G(T)/Eh
   ------------------------------------------------------------------------
    298.15    0.394577E-02    0.387929E-01    0.250061E-01    0.137868E-01
    120.00    0.152037E-02    0.363675E-01    0.859896E-02    0.277686E-01
    100.00    0.126679E-02    0.361140E-01    0.693471E-02    0.291793E-01
     80.00    0.101341E-02    0.358606E-01    0.532168E-02    0.305389E-01
     60.00    0.760056E-03    0.356072E-01    0.377267E-02    0.318346E-01
     40.00    0.506704E-03    0.353539E-01    0.230972E-02    0.330442E-01
     20.00    0.253352E-03    0.351005E-01    0.979304E-03    0.341212E-01
     10.00    0.126676E-03    0.349738E-01    0.401873E-03    0.345720E-01 (used)
   ------------------------------------------------------------------------

         :::::::::::::::::::::::::::::::::::::::::::::::::::::
         ::                  THERMODYNAMIC                  ::
         :::::::::::::::::::::::::::::::::::::::::::::::::::::
         :: total free energy          -6.381288621272 Eh   ::
         ::.................................................::
         :: total energy               -6.415860593908 Eh   ::
         :: zero point energy           0.034847169875 Eh   ::
         :: G(RRHO) w/o ZPVE           -0.000275197239 Eh   ::
         :: G(RRHO) contrib.            0.034571972636 Eh   ::
         :::::::::::::::::::::::::::::::::::::::::::::::::::::

           -------------------------------------------------
          | TOTAL ENERGY               -6.415860593908 Eh   |
          | TOTAL ENTHALPY             -6.380886748017 Eh   |
          | TOTAL FREE ENERGY          -6.381288621272 Eh   |
          | GRADIENT NORM               0.000095870530 Eh/Î± |
          | HOMO-LUMO GAP               0.000000956976 eV   |
           -------------------------------------------------

 * finished run on 2020/05/12 at 11:44:27.994
