   * xtb version 6.2.2 (9d81278992624c895f80dd42a50cac0aa55982e2) compiled by '@Darwin' on 04/03/2020
          program call               : xtb --input H1C3N1_18_S_2.input H1C3N1_18_S_2.xyz --ohess --molden --namespace H1C3N1_18_S_2 output.out
          number of atoms            :                     5
          number of electrons        :                    18
          charge                     :                     0
          spin                       :                   1.0

   ID    Z sym.   atoms
    1    6 C      1, 3, 4
    2    7 N      2
    3    1 H      5

          :  Hamiltonian                  GFN2-xTB          :
 * total energy  :    -9.3554768 Eh     change        0.2147438E-10 Eh
 * total energy  :    -9.3877908 Eh     change       -0.3231396E-01 Eh
 * total energy  :    -9.2224532 Eh     change        0.1653376E+00 Eh
 * total energy  :    -9.4107191 Eh     change       -0.1882659E+00 Eh
 * total energy  :    -9.4124575 Eh     change       -0.1738444E-02 Eh
 * total energy  :    -9.4142701 Eh     change       -0.1812551E-02 Eh
 * total energy  :    -9.4158249 Eh     change       -0.1554810E-02 Eh
 * total energy  :    -9.4166583 Eh     change       -0.8334213E-03 Eh
 * total energy  :    -9.4179340 Eh     change       -0.1275750E-02 Eh
 * total energy  :    -9.4184914 Eh     change       -0.5573903E-03 Eh
 * total energy  :    -9.5172154 Eh     change       -0.3703689E-02 Eh
 * total energy  :    -9.5176647 Eh     change       -0.4493118E-03 Eh
 * total energy  :    -9.5179569 Eh     change       -0.2922437E-03 Eh
 * total energy  :    -9.5180435 Eh     change       -0.8659537E-04 Eh
 * total energy  :    -9.5180631 Eh     change       -0.1951865E-04 Eh
 * total energy  :    -9.5180831 Eh     change       -0.2009123E-04 Eh
 * total energy  :    -9.5181154 Eh     change       -0.3226099E-04 Eh
 * total energy  :    -9.5181216 Eh     change       -0.6235263E-05 Eh
 * total energy  :    -9.5181238 Eh     change       -0.2108076E-05 Eh
   *** GEOMETRY OPTIMIZATION CONVERGED AFTER 79 ITERATIONS ***

 final structure:
================
5
 xtb: 6.2.2 (9d81278992624c895f80dd42a50cac0aa55982e2)
C         1.89455679113585   -0.46764879287885   -0.34165697840596
N         0.77147179047517   -0.21430491213603   -0.17294136394442
C        -0.52219915117156    0.13971085765899    0.10914287359873
C        -1.54121354109079   -0.25741795146600   -0.57793500321230
H        -0.60261588934893    0.79966179882242    0.98339147196807

          :  Hamiltonian                  GFN2-xTB          :
         :: gradient norm              0.000515289964 Eh/a0 ::
         :: HOMO-LUMO gap              1.830147670188 eV    ::
         :: SCC energy                -9.706721384225 Eh    ::
         :: -> dispersion             -0.002230053144 Eh    ::
         :: repulsion energy           0.188597573940 Eh    ::

    * Orbital Energies and Occupations

         #    Occupation            Energy/Eh            Energy/eV
      -------------------------------------------------------------
         1        2.0000           -0.6910451             -18.8043
         2        2.0000           -0.6684147             -18.1885
         3        2.0000           -0.6155600             -16.7502
         4        2.0000           -0.5746010             -15.6357
         5        2.0000           -0.5439496             -14.8016
         6        2.0000           -0.5027294             -13.6800
         7        2.0000           -0.4591006             -12.4928
         8        2.0000           -0.4431872             -12.0597
         9        1.0000           -0.4206191             -11.4456
        10        1.0000           -0.3449207              -9.3858 (HOMO)
        11                         -0.2776636              -7.5556 (LUMO)
        12                         -0.2407799              -6.5520
        13                         -0.1738374              -4.7304
        14                          0.0787251               2.1422
        15                          0.2003801               5.4526
        16                          0.6405803              17.4311
        17                          0.9971538              27.1339
      -------------------------------------------------------------
                  HL-Gap            0.0672571 Eh            1.8302 eV

     #   Z        covCN         q      C6AA      Î±(0)
     1   6 C      0.913    -0.105    38.775    10.422
     2   7 N      1.833     0.049    21.049     6.799
     3   6 C      2.816     0.053    26.800     8.482
     4   6 C      0.994    -0.095    39.009    10.497
     5   1 H      0.923     0.098     1.802     2.099

Wiberg/Mayer (AO) data.
largest (>0.10) Wiberg bond orders for each atom
          total WBO             WBO to atom ...

molecular dipole:
                 x           y           z       tot (Debye)
 q only:       -0.194       0.282       0.349
   full:       -0.495       0.379       0.435       1.933

 projected vibrational frequencies (cm-1)
eigval :       -0.00    -0.00    -0.00    -0.00     0.00     0.00
eigval :      203.76   273.07   498.49   534.96   955.45  1157.21
eigval :     1646.23  2154.41  2784.05

   temp. (K)  partition function   enthalpy   heat capacity  entropy
                                   cal/mol     cal/K/mol   cal/K/mol   J/K/mol
  10.00  VIB   1.00                    0.000      0.000     -0.007
         ROT   107.                   29.809      2.981     12.268
         INT   107.                   29.809      2.981     12.262
         TR   0.217E+25               49.681      4.968     20.838
         TOT                          79.4904     7.9490    33.0994   138.4881

       T/K    H(0)-H(T)+PV         H(T)/Eh          T*S/Eh         G(T)/Eh
   ------------------------------------------------------------------------
    298.15    0.527797E-02    0.285327E-01    0.309632E-01   -0.243047E-02
    120.00    0.166724E-02    0.249220E-01    0.103056E-01    0.146164E-01
    100.00    0.134686E-02    0.246016E-01    0.829629E-02    0.163053E-01
     80.00    0.104750E-02    0.243022E-01    0.637022E-02    0.179320E-01
     60.00    0.768926E-03    0.240237E-01    0.453765E-02    0.194860E-01
     40.00    0.507381E-03    0.237621E-01    0.281332E-02    0.209488E-01
     20.00    0.253352E-03    0.235081E-01    0.123061E-02    0.222775E-01
     10.00    0.126676E-03    0.233814E-01    0.527473E-03    0.228539E-01 (used)
   ------------------------------------------------------------------------

         :::::::::::::::::::::::::::::::::::::::::::::::::::::
         ::                  THERMODYNAMIC                  ::
         :::::::::::::::::::::::::::::::::::::::::::::::::::::
         :: total free energy          -9.495269809425 Eh   ::
         ::.................................................::
         :: total energy               -9.518123748007 Eh   ::
         :: zero point energy           0.023254735724 Eh   ::
         :: G(RRHO) w/o ZPVE           -0.000400797141 Eh   ::
         :: G(RRHO) contrib.            0.022853938583 Eh   ::
         :::::::::::::::::::::::::::::::::::::::::::::::::::::

           -------------------------------------------------
          | TOTAL ENERGY               -9.518123748007 Eh   |
          | TOTAL ENTHALPY             -9.494742336268 Eh   |
          | TOTAL FREE ENERGY          -9.495269809425 Eh   |
          | GRADIENT NORM               0.000515267681 Eh/Î± |
          | HOMO-LUMO GAP               1.830157946639 eV   |
           -------------------------------------------------

 * finished run on 2020/05/12 at 11:44:57.752
