   * xtb version 6.2.2 (9d81278992624c895f80dd42a50cac0aa55982e2) compiled by '@Darwin' on 04/03/2020
          program call               : xtb --input C5_14_S_2.input C5_14_S_2.xyz --ohess --molden --namespace C5_14_S_2 output.out
          number of atoms            :                     5
          number of electrons        :                    20
          charge                     :                     0
          spin                       :                   1.0

   ID    Z sym.   atoms
    1    6 C      1-5

          :  Hamiltonian                  GFN2-xTB          :
 * total energy  :   -10.0721810 Eh     change        0.3198934E-09 Eh
 * total energy  :   -10.1108197 Eh     change       -0.3863869E-01 Eh
 * total energy  :   -10.1117987 Eh     change       -0.9789959E-03 Eh
 * total energy  :   -10.1190311 Eh     change       -0.7232426E-02 Eh
 * total energy  :   -10.1212478 Eh     change       -0.2216653E-02 Eh
 * total energy  :   -10.1355986 Eh     change       -0.1435077E-01 Eh
 * total energy  :   -10.1388473 Eh     change       -0.3248792E-02 Eh
 * total energy  :   -10.1581993 Eh     change       -0.1935196E-01 Eh
 * total energy  :   -10.1707080 Eh     change       -0.1250870E-01 Eh
 * total energy  :   -10.1741613 Eh     change       -0.3453263E-02 Eh
 * total energy  :   -10.1956783 Eh     change       -0.7641117E-02 Eh
 * total energy  :   -10.1961793 Eh     change       -0.5010040E-03 Eh
 * total energy  :   -10.1978739 Eh     change       -0.1694587E-02 Eh
 * total energy  :   -10.1984266 Eh     change       -0.5527241E-03 Eh
 * total energy  :   -10.1991074 Eh     change       -0.6807827E-03 Eh
 * total energy  :   -10.1991381 Eh     change       -0.3076279E-04 Eh
 * total energy  :   -10.1991500 Eh     change       -0.1191716E-04 Eh
 * total energy  :   -10.1991611 Eh     change       -0.1101912E-04 Eh
 * total energy  :   -10.1991641 Eh     change       -0.3043693E-05 Eh
   *** GEOMETRY OPTIMIZATION CONVERGED AFTER 22 ITERATIONS ***

 final structure:
================
5
 xtb: 6.2.2 (9d81278992624c895f80dd42a50cac0aa55982e2)
C         1.94765688097777    0.02169201843307   -0.05142614982117
C         0.67697894537198    0.02787181846786   -0.06967600521085
C        -1.53929621424168   -0.11136527320099    0.31386857040954
C        -0.53826086590489   -0.77116262131636   -0.36280554212421
C        -0.54707874620318    0.83296505761643    0.17003812674670

          :  Hamiltonian                  GFN2-xTB          :
         :: gradient norm              0.000736132850 Eh/a0 ::
         :: HOMO-LUMO gap              1.137774755341 eV    ::
         :: SCC energy               -10.385068109280 Eh    ::
         :: -> dispersion             -0.002948230999 Eh    ::
         :: repulsion energy           0.185904015990 Eh    ::

    * Orbital Energies and Occupations

         #    Occupation            Energy/Eh            Energy/eV
      -------------------------------------------------------------
         1        2.0000           -0.7381021             -20.0848
         2        2.0000           -0.6789866             -18.4762
         3        2.0000           -0.6191033             -16.8467
         4        2.0000           -0.6160673             -16.7640
         5        2.0000           -0.5552754             -15.1098
         6        2.0000           -0.5457454             -14.8505
         7        2.0000           -0.4740302             -12.8990
         8        2.0000           -0.4628814             -12.5956
         9        2.0000           -0.4559733             -12.4077
        10        1.0000           -0.4205391             -11.4435
        11        1.0000           -0.4055758             -11.0363 (HOMO)
        12                         -0.3637634              -9.8985 (LUMO)
        13                         -0.3037168              -8.2646
        14                         -0.2628877              -7.1535
        15                         -0.1834104              -4.9908
        16                          0.0798518               2.1729
        17                          0.1388624               3.7786
        18                          0.1833933               4.9904
        19                          0.4235498              11.5254
        20                          0.8350277              22.7223
      -------------------------------------------------------------
                  HL-Gap            0.0418125 Eh            1.1378 eV

     #   Z        covCN         q      C6AA      Î±(0)
     1   6 C      0.982    -0.107    39.334    10.534
     2   6 C      3.024     0.105    25.661     8.309
     3   6 C      2.048    -0.006    31.140     9.013
     4   6 C      2.890     0.004    27.924     8.664
     5   6 C      2.890     0.004    27.935     8.665

Wiberg/Mayer (AO) data.
largest (>0.10) Wiberg bond orders for each atom
          total WBO             WBO to atom ...

molecular dipole:
                 x           y           z       tot (Debye)
 q only:       -0.251       0.002      -0.009
   full:       -0.421       0.009      -0.032       1.073

 projected vibrational frequencies (cm-1)
eigval :       -0.00    -0.00    -0.00    -0.00     0.00     0.00
eigval :      224.26   300.45   441.86   539.80   557.18   937.19
eigval :      977.62  1486.20  1712.47

   temp. (K)  partition function   enthalpy   heat capacity  entropy
                                   cal/mol     cal/K/mol   cal/K/mol   J/K/mol
  10.00  VIB   1.00                    0.000      0.000     -0.005
         ROT   193.                   29.809      2.981     13.436
         INT   193.                   29.809      2.981     13.430
         TR   0.277E+25               49.681      4.968     21.322
         TOT                          79.4904     7.9490    34.7524   145.4042

       T/K    H(0)-H(T)+PV         H(T)/Eh          T*S/Eh         G(T)/Eh
   ------------------------------------------------------------------------
    298.15    0.546665E-02    0.218172E-01    0.319441E-01   -0.101270E-01
    120.00    0.165020E-02    0.180007E-01    0.105937E-01    0.740703E-02
    100.00    0.133278E-02    0.176833E-01    0.853909E-02    0.914419E-02
     80.00    0.103900E-02    0.173895E-01    0.656946E-02    0.108200E-01
     60.00    0.765875E-03    0.171164E-01    0.469175E-02    0.124246E-01
     40.00    0.507053E-03    0.168576E-01    0.291819E-02    0.139394E-01
     20.00    0.253352E-03    0.166039E-01    0.128327E-02    0.153206E-01
     10.00    0.126676E-03    0.164772E-01    0.553815E-03    0.159234E-01 (used)
   ------------------------------------------------------------------------

         :::::::::::::::::::::::::::::::::::::::::::::::::::::
         ::                  THERMODYNAMIC                  ::
         :::::::::::::::::::::::::::::::::::::::::::::::::::::
         :: total free energy         -10.183240734643 Eh   ::
         ::.................................................::
         :: total energy              -10.199164099130 Eh   ::
         :: zero point energy           0.016350503874 Eh   ::
         :: G(RRHO) w/o ZPVE           -0.000427139387 Eh   ::
         :: G(RRHO) contrib.            0.015923364487 Eh   ::
         :::::::::::::::::::::::::::::::::::::::::::::::::::::

           -------------------------------------------------
          | TOTAL ENERGY              -10.199164099130 Eh   |
          | TOTAL ENTHALPY            -10.182686919241 Eh   |
          | TOTAL FREE ENERGY         -10.183240734643 Eh   |
          | GRADIENT NORM               0.000736107192 Eh/Î± |
          | HOMO-LUMO GAP               1.137775461386 eV   |
           -------------------------------------------------

 * finished run on 2020/05/12 at 11:44:37.875
