   * xtb version 6.2.2 (9d81278992624c895f80dd42a50cac0aa55982e2) compiled by '@Darwin' on 04/03/2020
          program call               : xtb --input H1C2_0_S_1.input H1C2_0_S_1.xyz --ohess --molden --namespace H1C2_0_S_1 output.out
          number of atoms            :                     3
          number of electrons        :                     9
          charge                     :                     0
          spin                       :                   0.5

   ID    Z sym.   atoms
    1    6 C      1, 2
    2    1 H      3

          :  Hamiltonian                  GFN2-xTB          :
 * total energy  :    -4.4771426 Eh     change       -0.9915002E-10 Eh
 * total energy  :    -4.5543304 Eh     change       -0.7718781E-01 Eh
 * total energy  :    -4.5352346 Eh     change        0.1909588E-01 Eh
 * total energy  :    -4.5714918 Eh     change       -0.3625721E-01 Eh
 * total energy  :    -4.5739525 Eh     change       -0.2460718E-02 Eh
 * total energy  :    -4.5766121 Eh     change       -0.2659615E-02 Eh
 * total energy  :    -4.5766345 Eh     change       -0.2245189E-04 Eh
 * total energy  :    -4.5776512 Eh     change       -0.1016679E-02 Eh
 * total energy  :    -4.5778063 Eh     change       -0.1550765E-03 Eh
 * total energy  :    -4.5778972 Eh     change       -0.9091520E-04 Eh
 * total energy  :    -4.5779042 Eh     change       -0.6958423E-05 Eh
 * total energy  :    -4.5779043 Eh     change       -0.1417853E-06 Eh
   *** GEOMETRY OPTIMIZATION CONVERGED AFTER 12 ITERATIONS ***

 final structure:
================
3
 xtb: 6.2.2 (9d81278992624c895f80dd42a50cac0aa55982e2)
C        -0.04421300576594   -0.00283884296471    0.00000000000000
C         1.14650614880587    0.05036520676450    0.00000000000000
H        -1.10229314303993   -0.04752636379978    0.00000000000000

          :  Hamiltonian                  GFN2-xTB          :
         :: gradient norm              0.000084708228 Eh/a0 ::
         :: HOMO-LUMO gap              6.185874466804 eV    ::
         :: SCC energy                -4.716169945694 Eh    ::
         :: -> dispersion             -0.000557404737 Eh    ::
         :: repulsion energy           0.138265627012 Eh    ::

    * Orbital Energies and Occupations

         #    Occupation            Energy/Eh            Energy/eV
      -------------------------------------------------------------
         1        2.0000           -0.6250953             -17.0097
         2        2.0000           -0.5351468             -14.5621
         3        2.0000           -0.4410123             -12.0006
         4        2.0000           -0.4410122             -12.0006
         5        1.0000           -0.3989048             -10.8548 (HOMO)
         6                         -0.1715781              -4.6689 (LUMO)
         7                         -0.1715775              -4.6689
         8                          0.1663913               4.5277
         9                          1.2418054              33.7912
      -------------------------------------------------------------
                  HL-Gap            0.2273267 Eh            6.1859 eV

     #   Z        covCN         q      C6AA      Î±(0)
     1   6 C      1.908    -0.073    33.104     9.292
     2   6 C      0.981    -0.049    37.438    10.277
     3   1 H      0.927     0.123     1.592     1.973

Wiberg/Mayer (AO) data.
largest (>0.10) Wiberg bond orders for each atom
          total WBO             WBO to atom ...

molecular dipole:
                 x           y           z       tot (Debye)
 q only:       -0.356      -0.015       0.000
   full:       -0.404      -0.018       0.000       1.028
Molecule has the following symmetry elements: (Cinf) (sigma)
It seems to be the Cinfv point group

   temp. (K)  partition function   enthalpy   heat capacity  entropy
                                   cal/mol     cal/K/mol   cal/K/mol   J/K/mol
  10.00  VIB   1.00                    0.000      0.000     -0.001
         ROT   4.61                   19.873      1.987      5.024
         INT   4.61                   19.873      1.987      5.023
         TR   0.744E+24               49.681      4.968     18.714
         TOT                          69.5541     6.9554    23.7377    99.3184

       T/K    H(0)-H(T)+PV         H(T)/Eh          T*S/Eh         G(T)/Eh
   ------------------------------------------------------------------------
    298.15    0.392870E-02    0.181181E-01    0.234189E-01   -0.530079E-02
    120.00    0.136122E-02    0.155506E-01    0.788128E-02    0.766931E-02
    100.00    0.112035E-02    0.153097E-01    0.634837E-02    0.896135E-02
     80.00    0.889583E-03    0.150790E-01    0.487292E-02    0.102060E-01
     60.00    0.665312E-03    0.148547E-01    0.346127E-02    0.113934E-01
     40.00    0.443368E-03    0.146327E-01    0.212760E-02    0.125051E-01
     20.00    0.221683E-03    0.144111E-01    0.910184E-03    0.135009E-01
     10.00    0.110842E-03    0.143002E-01    0.378284E-03    0.139219E-01 (used)
   ------------------------------------------------------------------------

         :::::::::::::::::::::::::::::::::::::::::::::::::::::
         ::                  THERMODYNAMIC                  ::
         :::::::::::::::::::::::::::::::::::::::::::::::::::::
         :: total free energy          -4.563982393491 Eh   ::
         ::.................................................::
         :: total energy               -4.577904319800 Eh   ::
         :: zero point energy           0.014189368739 Eh   ::
         :: G(RRHO) w/o ZPVE           -0.000267442430 Eh   ::
         :: G(RRHO) contrib.            0.013921926309 Eh   ::
         :::::::::::::::::::::::::::::::::::::::::::::::::::::

           -------------------------------------------------
          | TOTAL ENERGY               -4.577904319800 Eh   |
          | TOTAL ENTHALPY             -4.563604109547 Eh   |
          | TOTAL FREE ENERGY          -4.563982393491 Eh   |
          | GRADIENT NORM               0.000084709898 Eh/Î± |
          | HOMO-LUMO GAP               6.185874339050 eV   |
           -------------------------------------------------

 * finished run on 2020/05/12 at 11:44:43.791
