   * xtb version 6.2.2 (9d81278992624c895f80dd42a50cac0aa55982e2) compiled by '@Darwin' on 04/03/2020
          program call               : xtb --input C5_0_S_0.input C5_0_S_0.xyz --ohess --molden --namespace C5_0_S_0 output.out
          number of atoms            :                     5
          number of electrons        :                    20
          charge                     :                     0
          spin                       :                   0.0

   ID    Z sym.   atoms
    1    6 C      1-5

          :  Hamiltonian                  GFN2-xTB          :
 * total energy  :    -9.9257310 Eh     change        0.2159439E-08 Eh
 * total energy  :    -9.9637256 Eh     change       -0.3799453E-01 Eh
 * total energy  :    -9.9689093 Eh     change       -0.5183770E-02 Eh
 * total energy  :    -9.9700788 Eh     change       -0.1169405E-02 Eh
 * total energy  :    -9.9701022 Eh     change       -0.2346540E-04 Eh
 * total energy  :    -9.9701023 Eh     change       -0.6892105E-07 Eh
   *** GEOMETRY OPTIMIZATION CONVERGED AFTER 6 ITERATIONS ***

 final structure:
================
5
 xtb: 6.2.2 (9d81278992624c895f80dd42a50cac0aa55982e2)
C        -0.76152519502469   -0.77373977246257   -0.85760605279347
C        -0.00002180829514    0.00001193744727    0.00001996821122
C         0.44487100075324   -0.77991847686286    1.05257798489175
C        -0.77013522593525    1.03981213696051    0.48974144944146
C         1.08681122850184    0.51383517491765   -0.68473334975097

          :  Hamiltonian                  GFN2-xTB          :
         :: gradient norm              0.000148001803 Eh/a0 ::
         :: HOMO-LUMO gap              1.679532917608 eV    ::
         :: SCC energy               -10.110793442031 Eh    ::
         :: -> dispersion             -0.003375695317 Eh    ::
         :: repulsion energy           0.140691011420 Eh    ::

    * Orbital Energies and Occupations

         #    Occupation            Energy/Eh            Energy/eV
      -------------------------------------------------------------
         1        2.0000           -0.7809878             -21.2518
         2        2.0000           -0.7011043             -19.0780
         3        2.0000           -0.7011008             -19.0779
         4        2.0000           -0.7010985             -19.0779
         5        2.0000           -0.5460443             -14.8586
         6        2.0000           -0.5272224             -14.3465
         7        2.0000           -0.5272223             -14.3464
         8        2.0000           -0.5272222             -14.3464
         9        2.0000           -0.4590653             -12.4918
        10        2.0000           -0.4590652             -12.4918 (HOMO)
        11                         -0.3973436             -10.8123 (LUMO)
        12                         -0.3973362             -10.8121
        13                         -0.3973313             -10.8119
        14                         -0.3835733             -10.4376
        15                         -0.3835704             -10.4375
        16                         -0.3835659             -10.4374
        17                          0.3087909               8.4026
        18                          0.3088126               8.4032
        19                          0.3088471               8.4042
        20                          0.3203391               8.7169
      -------------------------------------------------------------
                  HL-Gap            0.0617217 Eh            1.6795 eV

     #   Z        covCN         q      C6AA      Î±(0)
     1   6 C      1.229    -0.076    39.384    10.620
     2   6 C      3.921     0.305    15.996     5.684
     3   6 C      1.229    -0.076    39.384    10.620
     4   6 C      1.229    -0.076    39.384    10.620
     5   6 C      1.229    -0.076    39.384    10.620

Wiberg/Mayer (AO) data.
largest (>0.10) Wiberg bond orders for each atom
          total WBO             WBO to atom ...

molecular dipole:
                 x           y           z       tot (Debye)
 q only:       -0.000       0.000       0.000
   full:       -0.000       0.000       0.000       0.000

 projected vibrational frequencies (cm-1)
eigval :       -0.00    -0.00     0.00     0.00     0.00     0.00
eigval :     -382.67  -382.53  -382.31   230.55   230.55  1018.82
eigval :     1289.96  1289.98  1290.01

   temp. (K)  partition function   enthalpy   heat capacity  entropy
                                   cal/mol     cal/K/mol   cal/K/mol   J/K/mol
  10.00  VIB   1.00                    0.000      0.000     -0.006
         ROT   18.8                   29.809      2.981      8.808
         INT   18.8                   29.809      2.981      8.802
         TR   0.277E+25               49.681      4.968     21.322
         TOT                          79.4904     7.9490    30.1240   126.0390

       T/K    H(0)-H(T)+PV         H(T)/Eh          T*S/Eh         G(T)/Eh
   ------------------------------------------------------------------------
    298.15    0.487490E-02    0.170628E-01    0.289979E-01   -0.119351E-01
    120.00    0.166146E-02    0.138493E-01    0.972937E-02    0.411996E-02
    100.00    0.134581E-02    0.135337E-01    0.782033E-02    0.571334E-02
     80.00    0.104719E-02    0.132351E-01    0.599007E-02    0.724498E-02
     60.00    0.768435E-03    0.129563E-01    0.425239E-02    0.870391E-02
     40.00    0.507230E-03    0.126951E-01    0.262343E-02    0.100717E-01
     20.00    0.253352E-03    0.124412E-01    0.113577E-02    0.113055E-01
     10.00    0.126676E-03    0.123145E-01    0.480057E-03    0.118345E-01 (used)
   ------------------------------------------------------------------------

         :::::::::::::::::::::::::::::::::::::::::::::::::::::
         ::                  THERMODYNAMIC                  ::
         :::::::::::::::::::::::::::::::::::::::::::::::::::::
         :: total free energy          -9.958267798538 Eh   ::
         ::.................................................::
         :: total energy               -9.970102284750 Eh   ::
         :: zero point energy           0.012187867288 Eh   ::
         :: G(RRHO) w/o ZPVE           -0.000353381076 Eh   ::
         :: G(RRHO) contrib.            0.011834486212 Eh   ::
         :::::::::::::::::::::::::::::::::::::::::::::::::::::

           -------------------------------------------------
          | TOTAL ENERGY               -9.970102284750 Eh   |
          | TOTAL ENTHALPY             -9.957787741446 Eh   |
          | TOTAL FREE ENERGY          -9.958267798538 Eh   |
          | GRADIENT NORM               0.000147992012 Eh/Î± |
          | HOMO-LUMO GAP               1.679532902888 eV   |
           -------------------------------------------------

 * finished run on 2020/05/12 at 11:44:30.588
