   * xtb version 6.2.2 (9d81278992624c895f80dd42a50cac0aa55982e2) compiled by '@Darwin' on 04/03/2020
          program call               : xtb --input H1C3N1_17_S_2.input H1C3N1_17_S_2.xyz --ohess --molden --namespace H1C3N1_17_S_2 output.out
          number of atoms            :                     5
          number of electrons        :                    18
          charge                     :                     0
          spin                       :                   1.0

   ID    Z sym.   atoms
    1    6 C      1, 3, 4
    2    7 N      2
    3    1 H      5

          :  Hamiltonian                  GFN2-xTB          :
 * total energy  :    -9.3918206 Eh     change        0.5231778E-08 Eh
 * total energy  :    -9.4381753 Eh     change       -0.4635475E-01 Eh
 * total energy  :    -9.4178465 Eh     change        0.2032883E-01 Eh
 * total energy  :    -9.4802503 Eh     change       -0.6240380E-01 Eh
 * total energy  :    -9.4884169 Eh     change       -0.8166618E-02 Eh
 * total energy  :    -9.4966021 Eh     change       -0.8185169E-02 Eh
 * total energy  :    -9.5009685 Eh     change       -0.4366425E-02 Eh
 * total energy  :    -9.4987459 Eh     change        0.2222571E-02 Eh
 * total energy  :    -9.5019144 Eh     change       -0.3168445E-02 Eh
 * total energy  :    -9.5020359 Eh     change       -0.1214837E-03 Eh
 * total energy  :    -9.5020771 Eh     change       -0.4126415E-04 Eh
 * total energy  :    -9.5021064 Eh     change       -0.2926593E-04 Eh
 * total energy  :    -9.5021235 Eh     change       -0.1715922E-04 Eh
 * total energy  :    -9.5021305 Eh     change       -0.6947236E-05 Eh
 * total energy  :    -9.5021316 Eh     change       -0.1137358E-05 Eh
   *** GEOMETRY OPTIMIZATION CONVERGED AFTER 15 ITERATIONS ***

 final structure:
================
5
 xtb: 6.2.2 (9d81278992624c895f80dd42a50cac0aa55982e2)
C         1.05509955889453   -0.37516635499608   -0.02773838094641
N        -0.13507079867132   -0.12680123536387   -0.01009319397774
C        -1.32084026114134    0.75700961423071    0.05472055191055
C        -1.49664951685833   -0.53929744245781   -0.04274177905136
H         1.89746101777646    0.28425541858705    0.02585280206496

          :  Hamiltonian                  GFN2-xTB          :
         :: gradient norm              0.000538466202 Eh/a0 ::
         :: HOMO-LUMO gap              2.787577796669 eV    ::
         :: SCC energy                -9.661800221577 Eh    ::
         :: -> dispersion             -0.002163269215 Eh    ::
         :: repulsion energy           0.159668598241 Eh    ::

    * Orbital Energies and Occupations

         #    Occupation            Energy/Eh            Energy/eV
      -------------------------------------------------------------
         1        2.0000           -0.7132666             -19.4090
         2        2.0000           -0.6729424             -18.3117
         3        2.0000           -0.5899673             -16.0538
         4        2.0000           -0.5628335             -15.3155
         5        2.0000           -0.5600120             -15.2387
         6        2.0000           -0.5215932             -14.1933
         7        2.0000           -0.4589312             -12.4882
         8        2.0000           -0.4188850             -11.3984
         9        1.0000           -0.3847134             -10.4686
        10        1.0000           -0.3494443              -9.5089 (HOMO)
        11                         -0.2470027              -6.7213 (LUMO)
        12                         -0.2351717              -6.3993
        13                         -0.0648143              -1.7637
        14                         -0.0358999              -0.9769
        15                          0.2364552               6.4343
        16                          0.5647808              15.3685
        17                          0.7589300              20.6515
      -------------------------------------------------------------
                  HL-Gap            0.1024415 Eh            2.7876 eV

     #   Z        covCN         q      C6AA      Î±(0)
     1   6 C      1.839    -0.085    33.486     9.348
     2   7 N      2.724     0.108    19.387     6.539
     3   6 C      1.887    -0.069    33.010     9.279
     4   6 C      1.891    -0.044    32.291     9.178
     5   1 H      0.926     0.090     1.882     2.145

Wiberg/Mayer (AO) data.
largest (>0.10) Wiberg bond orders for each atom
          total WBO             WBO to atom ...

molecular dipole:
                 x           y           z       tot (Debye)
 q only:        0.422       0.028       0.003
   full:        0.803       0.125       0.011       2.066

 projected vibrational frequencies (cm-1)
eigval :       -0.00    -0.00    -0.00     0.00     0.00     0.00
eigval :      349.81   373.78   568.01   589.02   866.23   900.40
eigval :     1670.11  1954.36  3093.20

   temp. (K)  partition function   enthalpy   heat capacity  entropy
                                   cal/mol     cal/K/mol   cal/K/mol   J/K/mol
  10.00  VIB   1.00                    0.000      0.000     -0.002
         ROT   97.5                   29.809      2.981     12.081
         INT   97.5                   29.809      2.981     12.080
         TR   0.217E+25               49.681      4.968     20.838
         TOT                          79.4904     7.9490    32.9176   137.7273

       T/K    H(0)-H(T)+PV         H(T)/Eh          T*S/Eh         G(T)/Eh
   ------------------------------------------------------------------------
    298.15    0.493704E-02    0.285500E-01    0.301297E-01   -0.157971E-02
    120.00    0.156938E-02    0.251824E-01    0.101316E-01    0.150508E-01
    100.00    0.128644E-02    0.248994E-01    0.818537E-02    0.167141E-01
     80.00    0.101858E-02    0.246316E-01    0.630948E-02    0.183221E-01
     60.00    0.760642E-03    0.243736E-01    0.450968E-02    0.198640E-01
     40.00    0.506712E-03    0.241197E-01    0.280061E-02    0.213191E-01
     20.00    0.253352E-03    0.238663E-01    0.122473E-02    0.226416E-01
     10.00    0.126676E-03    0.237397E-01    0.524575E-03    0.232151E-01 (used)
   ------------------------------------------------------------------------

         :::::::::::::::::::::::::::::::::::::::::::::::::::::
         ::                  THERMODYNAMIC                  ::
         :::::::::::::::::::::::::::::::::::::::::::::::::::::
         :: total free energy          -9.478916532291 Eh   ::
         ::.................................................::
         :: total energy               -9.502131630547 Eh   ::
         :: zero point energy           0.023612997689 Eh   ::
         :: G(RRHO) w/o ZPVE           -0.000397899432 Eh   ::
         :: G(RRHO) contrib.            0.023215098257 Eh   ::
         :::::::::::::::::::::::::::::::::::::::::::::::::::::

           -------------------------------------------------
          | TOTAL ENERGY               -9.502131630547 Eh   |
          | TOTAL ENTHALPY             -9.478391956843 Eh   |
          | TOTAL FREE ENERGY          -9.478916532291 Eh   |
          | GRADIENT NORM               0.000538440944 Eh/Î± |
          | HOMO-LUMO GAP               2.787575945013 eV   |
           -------------------------------------------------

 * finished run on 2020/05/12 at 11:44:57.194
