   * xtb version 6.2.2 (9d81278992624c895f80dd42a50cac0aa55982e2) compiled by '@Darwin' on 04/03/2020
          program call               : xtb --input H1C1O1_0_S_1.input H1C1O1_0_S_1.xyz --ohess --molden --namespace H1C1O1_0_S_1 output.out
          number of atoms            :                     3
          number of electrons        :                    11
          charge                     :                     0
          spin                       :                   0.5

   ID    Z sym.   atoms
    1    8 O      1
    2    6 C      2
    3    1 H      3

          :  Hamiltonian                  GFN2-xTB          :
 * total energy  :    -6.5092694 Eh     change       -0.3555556E-10 Eh
 * total energy  :    -6.5205327 Eh     change       -0.1126329E-01 Eh
 * total energy  :    -6.5241819 Eh     change       -0.3649273E-02 Eh
 * total energy  :    -6.5253041 Eh     change       -0.1122154E-02 Eh
 * total energy  :    -6.5253715 Eh     change       -0.6741773E-04 Eh
 * total energy  :    -6.5253764 Eh     change       -0.4916338E-05 Eh
   *** GEOMETRY OPTIMIZATION CONVERGED AFTER 6 ITERATIONS ***

 final structure:
================
3
 xtb: 6.2.2 (9d81278992624c895f80dd42a50cac0aa55982e2)
O        -0.12622218534445    0.35472206853188    0.00000000000000
C         1.03946808164065   -0.10515930283092   -0.00000000000000
H        -0.91324589629620   -0.24956276570096    0.00000000000000

          :  Hamiltonian                  GFN2-xTB          :
         :: gradient norm              0.000838491367 Eh/a0 ::
         :: HOMO-LUMO gap              0.744574124100 eV    ::
         :: SCC energy                -6.563592295310 Eh    ::
         :: -> dispersion             -0.000412765600 Eh    ::
         :: repulsion energy           0.038215875309 Eh    ::

    * Orbital Energies and Occupations

         #    Occupation            Energy/Eh            Energy/eV
      -------------------------------------------------------------
         1        2.0000           -0.7547327             -20.5373
         2        2.0000           -0.6687312             -18.1971
         3        2.0000           -0.5919239             -16.1071
         4        2.0000           -0.5604498             -15.2506
Molecule has the following symmetry elements: (sigma)
It seems to be the Cs point group
         5        2.0000           -0.4454924             -12.1225
         6        1.0000           -0.2979298              -8.1071 (HOMO)
         7        0.0000           -0.2705672              -7.3625 (LUMO)
         8                          0.0480545               1.3076
         9                          0.4376657              11.9095
      -------------------------------------------------------------
                  HL-Gap            0.0273626 Eh            0.7446 eV

     #   Z        covCN         q      C6AA      Î±(0)
     1   8 O      1.656    -0.181    17.051     5.574
     2   6 C      0.855    -0.117    38.724    10.383
     3   1 H      0.801     0.297     0.730     1.342

Wiberg/Mayer (AO) data.
largest (>0.10) Wiberg bond orders for each atom
          total WBO             WBO to atom ...

molecular dipole:
                 x           y           z       tot (Debye)
 q only:       -0.699      -0.238       0.000
   full:       -1.274      -0.270       0.000       3.309

 projected vibrational frequencies (cm-1)
eigval :       -0.00    -0.00    -0.00     0.00     0.00     0.00
eigval :     1046.56  1456.97  2850.22

   temp. (K)  partition function   enthalpy   heat capacity  entropy
                                   cal/mol     cal/K/mol   cal/K/mol   J/K/mol
  10.00  VIB   1.00                    0.000      0.000     -0.000
         ROT   4.58                   29.809      2.981      6.004
         INT   4.58                   29.809      2.981      6.004
         TR   0.929E+24               49.681      4.968     19.155
         TOT                          79.4904     7.9490    25.1594   105.2668

       T/K    H(0)-H(T)+PV         H(T)/Eh          T*S/Eh         G(T)/Eh
   ------------------------------------------------------------------------
    298.15    0.381348E-02    0.160102E-01    0.248161E-01   -0.880586E-02
    120.00    0.152013E-02    0.137169E-01    0.858749E-02    0.512940E-02
    100.00    0.126676E-02    0.134635E-01    0.692534E-02    0.653818E-02
     80.00    0.101341E-02    0.132102E-01    0.531420E-02    0.789597E-02
     60.00    0.760056E-03    0.129568E-01    0.376706E-02    0.918975E-02
     40.00    0.506704E-03    0.127035E-01    0.230599E-02    0.103975E-01
     20.00    0.253352E-03    0.124501E-01    0.977437E-03    0.114727E-01
     10.00    0.126676E-03    0.123234E-01    0.400940E-03    0.119225E-01 (used)
   ------------------------------------------------------------------------

         :::::::::::::::::::::::::::::::::::::::::::::::::::::
         ::                  THERMODYNAMIC                  ::
         :::::::::::::::::::::::::::::::::::::::::::::::::::::
         :: total free energy          -6.513453925319 Eh   ::
         ::.................................................::
         :: total energy               -6.525376420077 Eh   ::
         :: zero point energy           0.012196758763 Eh   ::
         :: G(RRHO) w/o ZPVE           -0.000274264005 Eh   ::
         :: G(RRHO) contrib.            0.011922494759 Eh   ::
         :::::::::::::::::::::::::::::::::::::::::::::::::::::

           -------------------------------------------------
          | TOTAL ENERGY               -6.525376420077 Eh   |
          | TOTAL ENTHALPY             -6.513052985299 Eh   |
          | TOTAL FREE ENERGY          -6.513453925319 Eh   |
          | GRADIENT NORM               0.000838449318 Eh/Î± |
          | HOMO-LUMO GAP               0.744574287741 eV   |
           -------------------------------------------------

 * finished run on 2020/05/12 at 11:44:24.586
