   * xtb version 6.2.2 (9d81278992624c895f80dd42a50cac0aa55982e2) compiled by '@Darwin' on 04/03/2020
          program call               : xtb --input C4N1_5_S_3.input C4N1_5_S_3.xyz --ohess --molden --namespace C4N1_5_S_3 output.out
          number of atoms            :                     5
          number of electrons        :                    21
          charge                     :                     0
          spin                       :                   1.5

   ID    Z sym.   atoms
    1    6 C      1-4
    2    7 N      5

          :  Hamiltonian                  GFN2-xTB          :
 * total energy  :   -10.8160067 Eh     change        0.7200693E-09 Eh
 * total energy  :   -10.9288099 Eh     change       -0.1128032E+00 Eh
 * total energy  :   -10.8752226 Eh     change        0.5358729E-01 Eh
 * total energy  :   -10.9796891 Eh     change       -0.1044665E+00 Eh
 * total energy  :   -10.9796566 Eh     change        0.3254538E-04 Eh
 * total energy  :   -10.9961213 Eh     change       -0.1646476E-01 Eh
 * total energy  :   -11.0016130 Eh     change       -0.5491649E-02 Eh
 * total energy  :   -10.9991490 Eh     change        0.2463945E-02 Eh
 * total energy  :   -11.0054375 Eh     change       -0.6288486E-02 Eh
 * total energy  :   -11.0099781 Eh     change       -0.4540641E-02 Eh
 * total energy  :   -11.0777747 Eh     change       -0.5819145E-04 Eh
 * total energy  :   -11.0775654 Eh     change        0.2092985E-03 Eh
 * total energy  :   -11.0779968 Eh     change       -0.4313747E-03 Eh
 * total energy  :   -11.0780768 Eh     change       -0.7997419E-04 Eh
 * total energy  :   -11.0782073 Eh     change       -0.1305832E-03 Eh
 * total energy  :   -11.0782322 Eh     change       -0.2480965E-04 Eh
 * total energy  :   -11.0782566 Eh     change       -0.2447413E-04 Eh
 * total energy  :   -11.0782664 Eh     change       -0.9785938E-05 Eh
 * total energy  :   -11.0782700 Eh     change       -0.3593648E-05 Eh
   *** GEOMETRY OPTIMIZATION CONVERGED AFTER 29 ITERATIONS ***

 final structure:
================
5
 xtb: 6.2.2 (9d81278992624c895f80dd42a50cac0aa55982e2)
C        -1.49974985607113    0.79167885073299   -0.03403685425048
C        -0.22011777347864    0.02005364418401   -0.00021574463787
C         1.08316556420794   -0.10138761746254    0.00744071998639
C        -1.62076196265928   -0.49892781915185    0.01317504839773
N         2.25746402800111   -0.21141805830258    0.01363783050416

          :  Hamiltonian                  GFN2-xTB          :
         :: gradient norm              0.000737863892 Eh/a0 ::
         :: HOMO-LUMO gap              2.433656891378 eV    ::
         :: SCC energy               -11.309765537928 Eh    ::
         :: -> dispersion             -0.002665968709 Eh    ::
         :: repulsion energy           0.231495654382 Eh    ::

    * Orbital Energies and Occupations

         #    Occupation            Energy/Eh            Energy/eV
      -------------------------------------------------------------
         1        2.0000           -0.7239962             -19.7009
         2        2.0000           -0.6775861             -18.4381
         3        2.0000           -0.6451585             -17.5557
         4        2.0000           -0.5800105             -15.7829
         5        2.0000           -0.5572123             -15.1625
         6        2.0000           -0.5500088             -14.9665
         7        2.0000           -0.5124721             -13.9451
         8        2.0000           -0.4978746             -13.5479
         9        2.0000           -0.4548843             -12.3780
        10        1.0000           -0.4294991             -11.6873
        11        1.0000           -0.4233953             -11.5212
        12        1.0000           -0.3683309             -10.0228 (HOMO)
        13                         -0.2788957              -7.5891 (LUMO)
        14                         -0.2495262              -6.7900
        15                         -0.1634007              -4.4464
        16                         -0.0230088              -0.6261
        17                         -0.0091027              -0.2477
        18                          0.4349246              11.8349
        19                          0.5614376              15.2775
        20                          1.2000597              32.6553
      -------------------------------------------------------------
                  HL-Gap            0.0894352 Eh            2.4337 eV

     #   Z        covCN         q      C6AA      Î±(0)
     1   6 C      1.958     0.003    30.995     8.991
     2   6 C      2.937     0.070    26.426     8.431
     3   6 C      1.891     0.111    28.378     8.604
     4   6 C      1.958     0.003    30.994     8.991
     5   7 N      0.912    -0.187    25.057     7.239

Wiberg/Mayer (AO) data.
largest (>0.10) Wiberg bond orders for each atom
          total WBO             WBO to atom ...

molecular dipole:
                 x           y           z       tot (Debye)
 q only:       -0.620       0.058      -0.003
Molecule has the following symmetry elements: (C2) 2*(sigma)
It seems to be the C2v point group
   full:       -0.990       0.093      -0.005       2.527

 projected vibrational frequencies (cm-1)
eigval :       -0.00     0.00     0.00     0.00     0.00     0.00
eigval :      135.48   163.63   354.32   454.68   587.14   726.98
eigval :     1451.68  1808.83  2071.72

   temp. (K)  partition function   enthalpy   heat capacity  entropy
                                   cal/mol     cal/K/mol   cal/K/mol   J/K/mol
  10.00  VIB   1.00                    0.000      0.000     -0.025
         ROT   112.                   29.809      2.981     12.361
         INT   112.                   29.809      2.981     12.336
         TR   0.290E+25               49.681      4.968     21.419
         TOT                          79.4904     7.9490    33.7558   141.2344

       T/K    H(0)-H(T)+PV         H(T)/Eh          T*S/Eh         G(T)/Eh
   ------------------------------------------------------------------------
    298.15    0.595941E-02    0.236254E-01    0.326998E-01   -0.907439E-02
    120.00    0.182878E-02    0.194947E-01    0.106957E-01    0.879909E-02
    100.00    0.146106E-02    0.191270E-01    0.857859E-02    0.105484E-01
     80.00    0.111748E-02    0.187835E-01    0.655690E-02    0.122266E-01
     60.00    0.800394E-03    0.184664E-01    0.464464E-02    0.138217E-01
     40.00    0.513545E-03    0.181795E-01    0.286441E-02    0.153151E-01
     20.00    0.253394E-03    0.179194E-01    0.125207E-02    0.166673E-01
     10.00    0.126676E-03    0.177926E-01    0.537934E-03    0.172547E-01 (used)
   ------------------------------------------------------------------------

         :::::::::::::::::::::::::::::::::::::::::::::::::::::
         ::                  THERMODYNAMIC                  ::
         :::::::::::::::::::::::::::::::::::::::::::::::::::::
         :: total free energy         -11.061015291303 Eh   ::
         ::.................................................::
         :: total energy              -11.078270004032 Eh   ::
         :: zero point energy           0.017665970222 Eh   ::
         :: G(RRHO) w/o ZPVE           -0.000411257492 Eh   ::
         :: G(RRHO) contrib.            0.017254712729 Eh   ::
         :::::::::::::::::::::::::::::::::::::::::::::::::::::

           -------------------------------------------------
          | TOTAL ENERGY              -11.078270004032 Eh   |
          | TOTAL ENTHALPY            -11.060477357793 Eh   |
          | TOTAL FREE ENERGY         -11.061015291303 Eh   |
          | GRADIENT NORM               0.000737886469 Eh/Î± |
          | HOMO-LUMO GAP               2.433656619501 eV   |
           -------------------------------------------------

 * finished run on 2020/05/12 at 11:43:59.622
