   * xtb version 6.2.2 (9d81278992624c895f80dd42a50cac0aa55982e2) compiled by '@Darwin' on 04/03/2020
          program call               : xtb --input H1C3N1_2_S_2.input H1C3N1_2_S_2.xyz --ohess --molden --namespace H1C3N1_2_S_2 output.out
          number of atoms            :                     5
          number of electrons        :                    18
          charge                     :                     0
          spin                       :                   1.0

   ID    Z sym.   atoms
    1    6 C      1-3
    2    7 N      4
    3    1 H      5

          :  Hamiltonian                  GFN2-xTB          :
 * total energy  :    -9.3376973 Eh     change       -0.1529852E-09 Eh
 * total energy  :    -9.3879903 Eh     change       -0.5029300E-01 Eh
 * total energy  :    -9.4300294 Eh     change       -0.4203902E-01 Eh
 * total energy  :    -9.5145345 Eh     change       -0.8450511E-01 Eh
 * total energy  :    -9.3207461 Eh     change        0.1937884E+00 Eh
 * total energy  :    -9.5161212 Eh     change       -0.1953751E+00 Eh
 * total energy  :    -9.5192344 Eh     change       -0.3113285E-02 Eh
 * total energy  :    -9.5295529 Eh     change       -0.1031843E-01 Eh
 * total energy  :    -9.5314477 Eh     change       -0.1894818E-02 Eh
 * total energy  :    -9.5340901 Eh     change       -0.2642360E-02 Eh
 * total energy  :    -9.5425845 Eh     change       -0.2213232E-02 Eh
 * total energy  :    -9.5456610 Eh     change       -0.3076492E-02 Eh
 * total energy  :    -9.5467357 Eh     change       -0.1074659E-02 Eh
 * total energy  :    -9.5470021 Eh     change       -0.2664929E-03 Eh
 * total energy  :    -9.5470463 Eh     change       -0.4419955E-04 Eh
 * total energy  :    -9.5470884 Eh     change       -0.4201249E-04 Eh
 * total energy  :    -9.5471166 Eh     change       -0.2821907E-04 Eh
 * total energy  :    -9.5471221 Eh     change       -0.5512968E-05 Eh
 * total energy  :    -9.5471232 Eh     change       -0.1069666E-05 Eh
   *** GEOMETRY OPTIMIZATION CONVERGED AFTER 29 ITERATIONS ***

 final structure:
================
5
 xtb: 6.2.2 (9d81278992624c895f80dd42a50cac0aa55982e2)
C        -1.32716396475305    0.84156426464838    0.27349319577832
C        -0.08855649715014    0.11423777649687    0.04524253104185
C        -1.44214100537925   -0.34870363328600   -0.28968941143134
N         1.12989816102836    0.07382372537437    0.13278658948546
H         1.72796430625408   -0.68092113323362   -0.16183290487429

          :  Hamiltonian                  GFN2-xTB          :
         :: gradient norm              0.000331196745 Eh/a0 ::
         :: HOMO-LUMO gap              3.157437484939 eV    ::
         :: SCC energy                -9.719923250403 Eh    ::
         :: -> dispersion             -0.002095211210 Eh    ::
         :: repulsion energy           0.172800087884 Eh    ::

    * Orbital Energies and Occupations

         #    Occupation            Energy/Eh            Energy/eV
      -------------------------------------------------------------
         1        2.0000           -0.6958390             -18.9347
         2        2.0000           -0.6683542             -18.1868
         3        2.0000           -0.5832202             -15.8702
         4        2.0000           -0.5540049             -15.0752
         5        2.0000           -0.5331640             -14.5081
         6        2.0000           -0.5123905             -13.9429
         7        2.0000           -0.4670402             -12.7088
         8        2.0000           -0.4382138             -11.9244
         9        1.0000           -0.3872902             -10.5387
        10        1.0000           -0.3610474              -9.8246 (HOMO)
        11                         -0.2450138              -6.6672 (LUMO)
        12                         -0.2201413              -5.9903
        13                         -0.0270150              -0.7351
        14                          0.0508190               1.3829
        15                          0.2116875               5.7603
        16                          0.5391434              14.6708
        17                          0.8103111              22.0497
      -------------------------------------------------------------
Molecule has the following symmetry elements: (sigma)
It seems to be the Cs point group
                  HL-Gap            0.1160336 Eh            3.1574 eV

     #   Z        covCN         q      C6AA      Î±(0)
     1   6 C      1.960    -0.052    32.473     9.203
     2   6 C      2.868     0.179    24.169     8.059
     3   6 C      1.959    -0.069    32.940     9.268
     4   7 N      1.771    -0.253    27.400     7.751
     5   1 H      0.860     0.195     1.132     1.667

Wiberg/Mayer (AO) data.
largest (>0.10) Wiberg bond orders for each atom
          total WBO             WBO to atom ...

molecular dipole:
                 x           y           z       tot (Debye)
 q only:        0.384      -0.285      -0.097
   full:        0.550      -0.489      -0.176       1.923

 projected vibrational frequencies (cm-1)
eigval :       -0.00    -0.00    -0.00     0.00     0.00     0.00
eigval :      365.39   414.66   521.57   815.17   908.57   940.69
eigval :     1639.68  2026.33  3414.60

   temp. (K)  partition function   enthalpy   heat capacity  entropy
                                   cal/mol     cal/K/mol   cal/K/mol   J/K/mol
  10.00  VIB   1.00                    0.000      0.000     -0.001
         ROT   105.                   29.809      2.981     12.235
         INT   105.                   29.809      2.981     12.234
         TR   0.217E+25               49.681      4.968     20.838
         TOT                          79.4904     7.9490    33.0717   138.3719

       T/K    H(0)-H(T)+PV         H(T)/Eh          T*S/Eh         G(T)/Eh
   ------------------------------------------------------------------------
    298.15    0.480140E-02    0.299675E-01    0.299926E-01   -0.250206E-04
    120.00    0.155932E-02    0.267255E-01    0.101483E-01    0.165772E-01
    100.00    0.128169E-02    0.264478E-01    0.820406E-02    0.182438E-01
     80.00    0.101704E-02    0.261832E-01    0.632725E-02    0.198559E-01
     60.00    0.760416E-03    0.259266E-01    0.452412E-02    0.214024E-01
     40.00    0.506708E-03    0.256728E-01    0.281041E-02    0.228624E-01
     20.00    0.253352E-03    0.254195E-01    0.122963E-02    0.241899E-01
     10.00    0.126676E-03    0.252928E-01    0.527031E-03    0.247658E-01 (used)
   ------------------------------------------------------------------------

         :::::::::::::::::::::::::::::::::::::::::::::::::::::
         ::                  THERMODYNAMIC                  ::
         :::::::::::::::::::::::::::::::::::::::::::::::::::::
         :: total free energy          -9.522357376151 Eh   ::
         ::.................................................::
         :: total energy               -9.547123163230 Eh   ::
         :: zero point energy           0.025166141792 Eh   ::
         :: G(RRHO) w/o ZPVE           -0.000400354714 Eh   ::
         :: G(RRHO) contrib.            0.024765787079 Eh   ::
         :::::::::::::::::::::::::::::::::::::::::::::::::::::

           -------------------------------------------------
          | TOTAL ENERGY               -9.547123163230 Eh   |
          | TOTAL ENTHALPY             -9.521830345422 Eh   |
          | TOTAL FREE ENERGY          -9.522357376151 Eh   |
          | GRADIENT NORM               0.000331296786 Eh/Î± |
          | HOMO-LUMO GAP               3.157435690240 eV   |
           -------------------------------------------------

 * finished run on 2020/05/12 at 11:44:51.090
