   * xtb version 6.2.2 (9d81278992624c895f80dd42a50cac0aa55982e2) compiled by '@Darwin' on 04/03/2020
          program call               : xtb --input H1C3N1_31_S_0.input H1C3N1_31_S_0.xyz --ohess --molden --namespace H1C3N1_31_S_0 output.out
          number of atoms            :                     5
          number of electrons        :                    18
          charge                     :                     0
          spin                       :                   0.0

   ID    Z sym.   atoms
    1    7 N      1
    2    6 C      2-4
    3    1 H      5

          :  Hamiltonian                  GFN2-xTB          :
 * total energy  :    -9.4721136 Eh     change       -0.1149081E-08 Eh
 * total energy  :    -9.5288492 Eh     change       -0.5673557E-01 Eh
 * total energy  :    -9.5576358 Eh     change       -0.2878664E-01 Eh
 * total energy  :    -9.5676740 Eh     change       -0.1003817E-01 Eh
 * total energy  :    -9.5727328 Eh     change       -0.5058813E-02 Eh
 * total energy  :    -9.5774336 Eh     change       -0.4700777E-02 Eh
 * total energy  :    -9.5784201 Eh     change       -0.9865688E-03 Eh
 * total energy  :    -9.5792531 Eh     change       -0.8329394E-03 Eh
 * total energy  :    -9.5797375 Eh     change       -0.4844746E-03 Eh
 * total energy  :    -9.5800837 Eh     change       -0.3461916E-03 Eh
 * total energy  :    -9.5970139 Eh     change       -0.3923784E-04 Eh
 * total energy  :    -9.5971293 Eh     change       -0.1153750E-03 Eh
 * total energy  :    -9.5971942 Eh     change       -0.6485809E-04 Eh
 * total energy  :    -9.5972778 Eh     change       -0.8366240E-04 Eh
 * total energy  :    -9.5973510 Eh     change       -0.7317040E-04 Eh
 * total energy  :    -9.5974132 Eh     change       -0.6224995E-04 Eh
 * total energy  :    -9.5974398 Eh     change       -0.2654286E-04 Eh
 * total energy  :    -9.5974481 Eh     change       -0.8322898E-05 Eh
 * total energy  :    -9.5974490 Eh     change       -0.8851834E-06 Eh
   *** GEOMETRY OPTIMIZATION CONVERGED AFTER 30 ITERATIONS ***

 final structure:
================
5
 xtb: 6.2.2 (9d81278992624c895f80dd42a50cac0aa55982e2)
N        -1.55819803460790   -0.12727569968112    0.01919463611356
C        -0.35988134196264    0.84327245018033    0.10845012294150
C         0.69401500655508    0.07990457866713   -0.00566802183864
C        -0.52683101632510   -0.79889661537444   -0.08361695741833
H         1.75089538634055    0.00299528620810   -0.03835877979810

          :  Hamiltonian                  GFN2-xTB          :
         :: gradient norm              0.000557269632 Eh/a0 ::
         :: HOMO-LUMO gap              2.984357448269 eV    ::
         :: SCC energy                -9.756802957854 Eh    ::
         :: -> dispersion             -0.002069200343 Eh    ::
         :: repulsion energy           0.159353963395 Eh    ::

    * Orbital Energies and Occupations

         #    Occupation            Energy/Eh            Energy/eV
      -------------------------------------------------------------
         1        2.0000           -0.7250499             -19.7296
         2        2.0000           -0.6504088             -17.6985
         3        2.0000           -0.5963093             -16.2264
         4        2.0000           -0.5593670             -15.2212
         5        2.0000           -0.5488407             -14.9347
         6        2.0000           -0.5395208             -14.6811
         7        2.0000           -0.4494762             -12.2309
         8        2.0000           -0.4386462             -11.9362
         9        2.0000           -0.4224408             -11.4952 (HOMO)
        10                         -0.3127677              -8.5108 (LUMO)
        11                         -0.2950590              -8.0290
        12                         -0.2052023              -5.5838
        13                         -0.0511040              -1.3906
        14                          0.0466915               1.2705
        15                          0.1767584               4.8098
        16                          0.5318361              14.4720
        17                          0.7064727              19.2241
      -------------------------------------------------------------
                  HL-Gap            0.1096731 Eh            2.9844 eV

     #   Z        covCN         q      C6AA      Î±(0)
     1   7 N      1.847    -0.161    25.272     7.450
     2   6 C      2.823     0.007    27.843     8.646
     3   6 C      2.924    -0.007    28.190     8.707
     4   6 C      2.832     0.076    26.301     8.404
Molecule has the following symmetry elements: (sigma)
It seems to be the Cs point group
     5   1 H      0.927     0.084     1.935     2.175

Wiberg/Mayer (AO) data.
largest (>0.10) Wiberg bond orders for each atom
          total WBO             WBO to atom ...

molecular dipole:
                 x           y           z       tot (Debye)
 q only:        0.663      -0.064      -0.022
   full:        1.094      -0.226      -0.051       2.842

 projected vibrational frequencies (cm-1)
eigval :       -0.00    -0.00    -0.00    -0.00     0.00     0.00
eigval :      227.95   460.39   613.29   773.56   909.33   927.10
eigval :     1658.48  1758.17  3270.06

   temp. (K)  partition function   enthalpy   heat capacity  entropy
                                   cal/mol     cal/K/mol   cal/K/mol   J/K/mol
  10.00  VIB   1.00                    0.000      0.000     -0.004
         ROT   85.9                   29.809      2.981     11.831
         INT   85.9                   29.809      2.981     11.828
         TR   0.217E+25               49.681      4.968     20.838
         TOT                          79.4904     7.9490    32.6657   136.6734

       T/K    H(0)-H(T)+PV         H(T)/Eh          T*S/Eh         G(T)/Eh
   ------------------------------------------------------------------------
    298.15    0.489440E-02    0.290392E-01    0.300453E-01   -0.100619E-02
    120.00    0.160304E-02    0.257478E-01    0.101342E-01    0.156136E-01
    100.00    0.131065E-02    0.254554E-01    0.817886E-02    0.172765E-01
     80.00    0.103150E-02    0.251763E-01    0.629418E-02    0.188821E-01
     60.00    0.764500E-03    0.249093E-01    0.449046E-02    0.204188E-01
     40.00    0.506990E-03    0.246517E-01    0.278501E-02    0.218667E-01
     20.00    0.253352E-03    0.243981E-01    0.121674E-02    0.231814E-01
     10.00    0.126676E-03    0.242714E-01    0.520562E-03    0.237509E-01 (used)
   ------------------------------------------------------------------------

         :::::::::::::::::::::::::::::::::::::::::::::::::::::
         ::                  THERMODYNAMIC                  ::
         :::::::::::::::::::::::::::::::::::::::::::::::::::::
         :: total free energy          -9.573698126907 Eh   ::
         ::.................................................::
         :: total energy               -9.597448998914 Eh   ::
         :: zero point energy           0.024144757519 Eh   ::
         :: G(RRHO) w/o ZPVE           -0.000393885512 Eh   ::
         :: G(RRHO) contrib.            0.023750872006 Eh   ::
         :::::::::::::::::::::::::::::::::::::::::::::::::::::

           -------------------------------------------------
          | TOTAL ENERGY               -9.597448998914 Eh   |
          | TOTAL ENTHALPY             -9.573177565379 Eh   |
          | TOTAL FREE ENERGY          -9.573698126907 Eh   |
          | GRADIENT NORM               0.000557207009 Eh/Î± |
          | HOMO-LUMO GAP               2.984356109943 eV   |
           -------------------------------------------------

 * finished run on 2020/05/12 at 11:45:02.350
