   * xtb version 6.2.2 (9d81278992624c895f80dd42a50cac0aa55982e2) compiled by '@Darwin' on 04/03/2020
          program call               : xtb --input C3O1_6_S_2.input C3O1_6_S_2.xyz --ohess --molden --namespace C3O1_6_S_2 output.out
          number of atoms            :                     4
          number of electrons        :                    18
          charge                     :                     0
          spin                       :                   1.0

   ID    Z sym.   atoms
    1    8 O      1
    2    6 C      2-4

          :  Hamiltonian                  GFN2-xTB          :
 * total energy  :   -10.0802940 Eh     change       -0.8344934E-09 Eh
 * total energy  :   -10.1058714 Eh     change       -0.2557737E-01 Eh
 * total energy  :   -10.1173783 Eh     change       -0.1150697E-01 Eh
 * total energy  :   -10.1190285 Eh     change       -0.1650133E-02 Eh
 * total energy  :   -10.1191916 Eh     change       -0.1630957E-03 Eh
 * total energy  :   -10.1192503 Eh     change       -0.5874959E-04 Eh
 * total energy  :   -10.1192524 Eh     change       -0.2109454E-05 Eh
   *** GEOMETRY OPTIMIZATION CONVERGED AFTER 7 ITERATIONS ***

 final structure:
================
4
 xtb: 6.2.2 (9d81278992624c895f80dd42a50cac0aa55982e2)
O        -1.03596435179596   -0.02683689444530    0.16493521089568
C        -0.03605197759424    0.84066222908897   -0.15772031220204
C         1.06445467542563    0.02761867352254    0.15026691765214
C         0.00756165396456   -0.84144400816621   -0.15748181634578

          :  Hamiltonian                  GFN2-xTB          :
         :: gradient norm              0.000445048166 Eh/a0 ::
         :: HOMO-LUMO gap              2.893346792354 eV    ::
         :: SCC energy               -10.207430715855 Eh    ::
         :: -> dispersion             -0.001575412027 Eh    ::
         :: repulsion energy           0.088178287889 Eh    ::

    * Orbital Energies and Occupations

         #    Occupation            Energy/Eh            Energy/eV
      -------------------------------------------------------------
         1        2.0000           -0.8036597             -21.8687
         2        2.0000           -0.7140285             -19.4297
         3        2.0000           -0.6802260             -18.5099
         4        2.0000           -0.6302407             -17.1497
         5        2.0000           -0.5934651             -16.1490
         6        2.0000           -0.5796223             -15.7723
         7        2.0000           -0.4859211             -13.2226
         8        2.0000           -0.4674375             -12.7196
         9        1.0000           -0.4178149             -11.3693
        10        1.0000           -0.4144732             -11.2784 (HOMO)
        11                         -0.3081447              -8.3850 (LUMO)
        12                         -0.2670935              -7.2680
        13                          0.0834653               2.2712
        14                          0.1045088               2.8438
Molecule has the following symmetry elements: (sigma)
It seems to be the Cs point group
        15                          0.1272041               3.4614
        16                          0.4184321              11.3861
      -------------------------------------------------------------
                  HL-Gap            0.1063285 Eh            2.8933 eV

     #   Z        covCN         q      C6AA      Î±(0)
     1   8 O      1.763    -0.130    16.255     5.444
     2   6 C      2.769     0.084    26.112     8.369
     3   6 C      2.017    -0.038    32.038     9.141
     4   6 C      2.769     0.084    26.112     8.369

Wiberg/Mayer (AO) data.
largest (>0.10) Wiberg bond orders for each atom
          total WBO             WBO to atom ...

molecular dipole:
                 x           y           z       tot (Debye)
 q only:        0.173       0.004      -0.101
   full:       -0.138      -0.004      -0.214       0.649

 projected vibrational frequencies (cm-1)
eigval :       -0.00    -0.00    -0.00    -0.00     0.00     0.00
eigval :      585.18   692.18   812.38   836.62  1219.77  1421.59

   temp. (K)  partition function   enthalpy   heat capacity  entropy
                                   cal/mol     cal/K/mol   cal/K/mol   J/K/mol
  10.00  VIB   1.00                    0.000      0.000     -0.000
         ROT   77.9                   29.809      2.981     11.637
         INT   77.9                   29.809      2.981     11.637
         TR   0.223E+25               49.681      4.968     20.895
         TOT                          79.4904     7.9490    32.5317   136.1127

       T/K    H(0)-H(T)+PV         H(T)/Eh          T*S/Eh         G(T)/Eh
   ------------------------------------------------------------------------
    298.15    0.422665E-02    0.169109E-01    0.288566E-01   -0.119457E-01
    120.00    0.152368E-02    0.142079E-01    0.100014E-01    0.420650E-02
    100.00    0.126755E-02    0.139518E-01    0.810111E-02    0.585065E-02
     80.00    0.101349E-02    0.136977E-01    0.625421E-02    0.744349E-02
     60.00    0.760058E-03    0.134443E-01    0.447200E-02    0.897227E-02
     40.00    0.506704E-03    0.131909E-01    0.277594E-02    0.104150E-01
     20.00    0.253352E-03    0.129376E-01    0.121241E-02    0.117252E-01
     10.00    0.126676E-03    0.128109E-01    0.518426E-03    0.122925E-01 (used)
   ------------------------------------------------------------------------

         :::::::::::::::::::::::::::::::::::::::::::::::::::::
         ::                  THERMODYNAMIC                  ::
         :::::::::::::::::::::::::::::::::::::::::::::::::::::
         :: total free energy         -10.106959963609 Eh   ::
         ::.................................................::
         :: total energy              -10.119252423477 Eh   ::
         :: zero point energy           0.012684209860 Eh   ::
         :: G(RRHO) w/o ZPVE           -0.000391749992 Eh   ::
         :: G(RRHO) contrib.            0.012292459868 Eh   ::
         :::::::::::::::::::::::::::::::::::::::::::::::::::::

           -------------------------------------------------
          | TOTAL ENERGY              -10.119252423477 Eh   |
          | TOTAL ENTHALPY            -10.106441537602 Eh   |
          | TOTAL FREE ENERGY         -10.106959963609 Eh   |
          | GRADIENT NORM               0.000445060074 Eh/Î± |
          | HOMO-LUMO GAP               2.893346732926 eV   |
           -------------------------------------------------

 * finished run on 2020/05/12 at 11:45:19.733
