   * xtb version 6.2.2 (9d81278992624c895f80dd42a50cac0aa55982e2) compiled by '@Darwin' on 04/03/2020
          program call               : xtb --input H3C2_1_S_1.input H3C2_1_S_1.xyz --ohess --molden --namespace H3C2_1_S_1 output.out
          number of atoms            :                     5
          number of electrons        :                    11
          charge                     :                     0
          spin                       :                   0.5

   ID    Z sym.   atoms
    1    6 C      1, 2
    2    1 H      3-5

          :  Hamiltonian                  GFN2-xTB          :
 * total energy  :    -5.5568884 Eh     change       -0.2753886E-10 Eh
 * total energy  :    -5.5893469 Eh     change       -0.3245853E-01 Eh
 * total energy  :    -5.4926822 Eh     change        0.9666471E-01 Eh
 * total energy  :    -5.6123303 Eh     change       -0.1196481E+00 Eh
 * total energy  :    -5.5772725 Eh     change        0.3505776E-01 Eh
 * total energy  :    -5.6059506 Eh     change       -0.2867809E-01 Eh
 * total energy  :    -5.5935863 Eh     change        0.1236428E-01 Eh
 * total energy  :    -5.6179871 Eh     change       -0.2440080E-01 Eh
 * total energy  :    -5.6123694 Eh     change        0.5617727E-02 Eh
 * total energy  :    -5.6102657 Eh     change        0.2103642E-02 Eh
 * total energy  :    -5.6369329 Eh     change       -0.7292118E-03 Eh
 * total energy  :    -5.6384234 Eh     change       -0.1490561E-02 Eh
 * total energy  :    -5.6506245 Eh     change       -0.1220112E-01 Eh
 * total energy  :    -5.6581280 Eh     change       -0.7503472E-02 Eh
 * total energy  :    -5.6608628 Eh     change       -0.2734823E-02 Eh
 * total energy  :    -5.6623387 Eh     change       -0.1475861E-02 Eh
 * total energy  :    -5.6624524 Eh     change       -0.1137109E-03 Eh
 * total energy  :    -5.6624708 Eh     change       -0.1834961E-04 Eh
 * total energy  :    -5.6624753 Eh     change       -0.4580671E-05 Eh
   *** GEOMETRY OPTIMIZATION CONVERGED AFTER 28 ITERATIONS ***

 final structure:
================
5
 xtb: 6.2.2 (9d81278992624c895f80dd42a50cac0aa55982e2)
C        -0.44099451898027    0.11386582299643    0.05257128519135
C         0.84188281894279    0.08511645157285    0.16090698580279
H        -1.05169031278856    0.81901418662959    0.59957116568395
H        -1.02040468934856   -0.55620405355944   -0.59004238570055
H         1.67120670217460   -0.46179240763944   -0.22300605097755

          :  Hamiltonian                  GFN2-xTB          :
         :: gradient norm              0.000431231807 Eh/a0 ::
         :: HOMO-LUMO gap              3.397294049133 eV    ::
         :: SCC energy                -5.781350232705 Eh    ::
         :: -> dispersion             -0.001094042146 Eh    ::
         :: repulsion energy           0.118874887124 Eh    ::

    * Orbital Energies and Occupations

         #    Occupation            Energy/Eh            Energy/eV
      -------------------------------------------------------------
         1        2.0000           -0.6071139             -16.5204
         2        2.0000           -0.5413018             -14.7296
         3        2.0000           -0.4934960             -13.4287
         4        2.0000           -0.4663449             -12.6899
         5        2.0000           -0.4147817             -11.2868
         6        1.0000           -0.3186021              -8.6696 (HOMO)
         7                         -0.1937538              -5.2723 (LUMO)
         8                          0.1244528               3.3865
         9                          0.1958064               5.3282
        10                          0.3434048               9.3445
        11                          0.7540391              20.5184
      -------------------------------------------------------------
                  HL-Gap            0.1248483 Eh            3.3973 eV

     #   Z        covCN         q      C6AA      Î±(0)
     1   6 C      2.830    -0.077    29.911     8.962
     2   6 C      1.908    -0.102    33.919     9.406
     3   1 H      0.925     0.062     2.171     2.304
     4   1 H      0.924     0.058     2.217     2.328
     5   1 H      0.927     0.058     2.225     2.333

Wiberg/Mayer (AO) data.
largest (>0.10) Wiberg bond orders for each atom
          total WBO             WBO to atom ...

molecular dipole:
                 x           y           z       tot (Debye)
 q only:       -0.152      -0.048      -0.057
   full:       -0.221      -0.156      -0.158       0.795

 projected vibrational frequencies (cm-1)
eigval :       -0.00    -0.00     0.00     0.00     0.00     0.00
eigval :      654.50   736.15   948.79   965.12  1356.11  1728.99
eigval :     2832.62  3034.61  3190.41

   temp. (K)  partition function   enthalpy   heat capacity  entropy
                                   cal/mol     cal/K/mol   cal/K/mol   J/K/mol
  10.00  VIB   1.00                    0.000      0.000     -0.000
         ROT   10.9                   29.809      2.981      7.731
         INT   10.9                   29.809      2.981      7.731
         TR   0.836E+24               49.681      4.968     18.945
         TOT                          79.4904     7.9490    26.6759   111.6120

       T/K    H(0)-H(T)+PV         H(T)/Eh          T*S/Eh         G(T)/Eh
   ------------------------------------------------------------------------
    298.15    0.410594E-02    0.392975E-01    0.259111E-01    0.133864E-01
    120.00    0.152186E-02    0.367134E-01    0.887947E-02    0.278339E-01
    100.00    0.126710E-02    0.364586E-01    0.716741E-02    0.292912E-01
     80.00    0.101344E-02    0.362050E-01    0.550759E-02    0.306974E-01
     60.00    0.760057E-03    0.359516E-01    0.391208E-02    0.320395E-01
     40.00    0.506704E-03    0.356982E-01    0.240266E-02    0.332956E-01
     20.00    0.253352E-03    0.354449E-01    0.102577E-02    0.344191E-01
     10.00    0.126676E-03    0.353182E-01    0.425108E-03    0.348931E-01 (used)
   ------------------------------------------------------------------------

         :::::::::::::::::::::::::::::::::::::::::::::::::::::
         ::                  THERMODYNAMIC                  ::
         :::::::::::::::::::::::::::::::::::::::::::::::::::::
         :: total free energy          -5.627582250689 Eh   ::
         ::.................................................::
         :: total energy               -5.662475335901 Eh   ::
         :: zero point energy           0.035191516795 Eh   ::
         :: G(RRHO) w/o ZPVE           -0.000298431583 Eh   ::
         :: G(RRHO) contrib.            0.034893085212 Eh   ::
         :::::::::::::::::::::::::::::::::::::::::::::::::::::

           -------------------------------------------------
          | TOTAL ENERGY               -5.662475335901 Eh   |
          | TOTAL ENTHALPY             -5.627157143090 Eh   |
          | TOTAL FREE ENERGY          -5.627582250689 Eh   |
          | GRADIENT NORM               0.000431225751 Eh/Î± |
          | HOMO-LUMO GAP               3.397293879856 eV   |
           -------------------------------------------------

 * finished run on 2020/05/12 at 11:45:12.698
