   * xtb version 6.2.2 (9d81278992624c895f80dd42a50cac0aa55982e2) compiled by '@Darwin' on 04/03/2020
          program call               : xtb --input C4N1_53_S_3.input C4N1_53_S_3.xyz --ohess --molden --namespace C4N1_53_S_3 output.out
          number of atoms            :                     5
          number of electrons        :                    21
          charge                     :                     0
          spin                       :                   1.5

   ID    Z sym.   atoms
    1    6 C      1, 3-5
    2    7 N      2

          :  Hamiltonian                  GFN2-xTB          :
 * total energy  :   -10.9145973 Eh     change        0.4774829E-09 Eh
 * total energy  :   -10.9263016 Eh     change       -0.1170429E-01 Eh
 * total energy  :   -10.9302571 Eh     change       -0.3955573E-02 Eh
 * total energy  :   -10.9304984 Eh     change       -0.2412621E-03 Eh
 * total energy  :   -10.9305782 Eh     change       -0.7978065E-04 Eh
 * total energy  :   -10.9305901 Eh     change       -0.1194478E-04 Eh
 * total energy  :   -10.9306008 Eh     change       -0.1069784E-04 Eh
 * total energy  :   -10.9306129 Eh     change       -0.1206476E-04 Eh
 * total energy  :   -10.9306652 Eh     change       -0.5229948E-04 Eh
 * total energy  :   -10.9317752 Eh     change       -0.1109983E-02 Eh
 * total energy  :   -10.9591818 Eh     change       -0.2740660E-01 Eh
 * total energy  :   -10.9601784 Eh     change       -0.9966583E-03 Eh
 * total energy  :   -10.9764352 Eh     change       -0.1625674E-01 Eh
 * total energy  :   -10.9775183 Eh     change       -0.1083123E-02 Eh
 * total energy  :   -10.9775861 Eh     change       -0.6785251E-04 Eh
 * total energy  :   -10.9776021 Eh     change       -0.1598688E-04 Eh
 * total energy  :   -10.9776060 Eh     change       -0.3910929E-05 Eh
 * total energy  :   -10.9776081 Eh     change       -0.2030108E-05 Eh
   *** GEOMETRY OPTIMIZATION CONVERGED AFTER 18 ITERATIONS ***

 final structure:
================
5
 xtb: 6.2.2 (9d81278992624c895f80dd42a50cac0aa55982e2)
C         1.13122868614374   -0.01291333852448   -0.01049758531146
N         0.17507216106254    0.97791823357095   -0.04503270562152
C        -0.74209062646637   -0.00289815089141   -0.70724397067051
C        -0.73419077952888    0.06676589781441    0.71530594801010
C         0.16997955878897   -1.02887264196947    0.04746931359339

          :  Hamiltonian                  GFN2-xTB          :
         :: gradient norm              0.000755244116 Eh/a0 ::
         :: HOMO-LUMO gap              2.216689842446 eV    ::
         :: SCC energy               -11.093433711470 Eh    ::
         :: -> dispersion             -0.002662494615 Eh    ::
         :: repulsion energy           0.115825625725 Eh    ::

    * Orbital Energies and Occupations

         #    Occupation            Energy/Eh            Energy/eV
      -------------------------------------------------------------
         1        2.0000           -0.7764321             -21.1278
         2        2.0000           -0.6768527             -18.4181
         3        2.0000           -0.6555983             -17.8397
         4        2.0000           -0.6253025             -17.0153
         5        2.0000           -0.5767655             -15.6946
         6        2.0000           -0.5245608             -14.2740
         7        2.0000           -0.5080734             -13.8254
         8        2.0000           -0.5009296             -13.6310
         9        2.0000           -0.4721921             -12.8490
        10        1.0000           -0.4486666             -12.2088
        11        1.0000           -0.4058064             -11.0426
        12        1.0000           -0.3964373             -10.7876 (HOMO)
        13                         -0.3149755              -8.5709 (LUMO)
        14                         -0.1535850              -4.1793
        15                         -0.1339774              -3.6457
        16                         -0.0566078              -1.5404
        17                         -0.0171112              -0.4656
        18                          0.1170714               3.1857
        19                          0.2673208               7.2742
        20                          0.3959865              10.7753
      -------------------------------------------------------------
                  HL-Gap            0.0814618 Eh            2.2167 eV

     #   Z        covCN         q      C6AA      Î±(0)
     1   6 C      2.867     0.029    27.339     8.571
     2   7 N      3.052    -0.080    22.780     7.089
     3   6 C      3.347     0.035    24.592     7.823
     4   6 C      3.338     0.033    24.818     7.885
     5   6 C      3.255    -0.018    27.335     8.456

Wiberg/Mayer (AO) data.
largest (>0.10) Wiberg bond orders for each atom
          total WBO             WBO to atom ...

molecular dipole:
                 x           y           z       tot (Debye)
 q only:       -0.064      -0.109       0.003
   full:        0.093      -0.029      -0.004       0.248

 projected vibrational frequencies (cm-1)
eigval :       -0.00    -0.00    -0.00     0.00     0.00     0.00
eigval :     -252.68  -213.69   637.57   714.54   894.49   922.53
eigval :     1190.41  1351.69  1419.04

   temp. (K)  partition function   enthalpy   heat capacity  entropy
                                   cal/mol     cal/K/mol   cal/K/mol   J/K/mol
  10.00  VIB   1.00                    0.000      0.000     -0.000
         ROT   139.                   29.809      2.981     12.788
         INT   139.                   29.809      2.981     12.788
         TR   0.290E+25               49.681      4.968     21.419
         TOT                          79.4904     7.9490    34.2071   143.1227

       T/K    H(0)-H(T)+PV         H(T)/Eh          T*S/Eh         G(T)/Eh
   ------------------------------------------------------------------------
    298.15    0.416228E-02    0.204062E-01    0.295613E-01   -0.915501E-02
    120.00    0.152228E-02    0.177662E-01    0.103202E-01    0.744608E-02
    100.00    0.126719E-02    0.175112E-01    0.836769E-02    0.914346E-02
     80.00    0.101345E-02    0.172574E-01    0.646775E-02    0.107897E-01
     60.00    0.760057E-03    0.170040E-01    0.463219E-02    0.123718E-01
     40.00    0.506704E-03    0.167507E-01    0.288274E-02    0.138679E-01
     20.00    0.253352E-03    0.164973E-01    0.126581E-02    0.152315E-01
     10.00    0.126676E-03    0.163706E-01    0.545125E-03    0.158255E-01 (used)
   ------------------------------------------------------------------------

         :::::::::::::::::::::::::::::::::::::::::::::::::::::
         ::                  THERMODYNAMIC                  ::
         :::::::::::::::::::::::::::::::::::::::::::::::::::::
         :: total free energy         -10.961782548074 Eh   ::
         ::.................................................::
         :: total energy              -10.977608065509 Eh   ::
         :: zero point energy           0.016243966805 Eh   ::
         :: G(RRHO) w/o ZPVE           -0.000418449370 Eh   ::
         :: G(RRHO) contrib.            0.015825517435 Eh   ::
         :::::::::::::::::::::::::::::::::::::::::::::::::::::

           -------------------------------------------------
          | TOTAL ENERGY              -10.977608065509 Eh   |
          | TOTAL ENTHALPY            -10.961237422688 Eh   |
          | TOTAL FREE ENERGY         -10.961782548074 Eh   |
          | GRADIENT NORM               0.000755250461 Eh/Î± |
          | HOMO-LUMO GAP               2.216689396180 eV   |
           -------------------------------------------------

 * finished run on 2020/05/12 at 11:44:22.433
