   * xtb version 6.2.2 (9d81278992624c895f80dd42a50cac0aa55982e2) compiled by '@Darwin' on 04/03/2020
          program call               : xtb --input C5_5_S_0.input C5_5_S_0.xyz --ohess --molden --namespace C5_5_S_0 output.out
          number of atoms            :                     5
          number of electrons        :                    20
          charge                     :                     0
          spin                       :                   0.0

   ID    Z sym.   atoms
    1    6 C      1-5

          :  Hamiltonian                  GFN2-xTB          :
 * total energy  :   -10.0841956 Eh     change        0.2470918E-08 Eh
 * total energy  :   -10.1599875 Eh     change       -0.7579186E-01 Eh
 * total energy  :   -10.1851148 Eh     change       -0.2512729E-01 Eh
 * total energy  :   -10.1937421 Eh     change       -0.8627366E-02 Eh
 * total energy  :   -10.1975891 Eh     change       -0.3846991E-02 Eh
 * total energy  :   -10.2139306 Eh     change       -0.1634149E-01 Eh
 * total energy  :   -10.2121057 Eh     change        0.1824948E-02 Eh
 * total energy  :   -10.2231273 Eh     change       -0.1102158E-01 Eh
 * total energy  :   -10.2220267 Eh     change        0.1100583E-02 Eh
 * total energy  :   -10.2258238 Eh     change       -0.3797123E-02 Eh
 * total energy  :   -10.2267562 Eh     change       -0.9323666E-03 Eh
 * total energy  :   -10.2277630 Eh     change       -0.1006817E-02 Eh
 * total energy  :   -10.2279947 Eh     change       -0.2317096E-03 Eh
 * total energy  :   -10.2280351 Eh     change       -0.4042356E-04 Eh
 * total energy  :   -10.2280426 Eh     change       -0.7500542E-05 Eh
 * total energy  :   -10.2280447 Eh     change       -0.2044289E-05 Eh
   *** GEOMETRY OPTIMIZATION CONVERGED AFTER 16 ITERATIONS ***

 final structure:
================
5
 xtb: 6.2.2 (9d81278992624c895f80dd42a50cac0aa55982e2)
C        -0.56345663201051    1.05748062039325    0.28962348894027
C         0.52109697244337   -0.00328986489768   -0.05402530279400
C        -0.58348357393524   -1.06223381909744    0.22549653062349
C         1.78713634457952   -0.01277279084390   -0.13564087382069
C        -1.16129311107714    0.02081585444577   -0.32545484294907

          :  Hamiltonian                  GFN2-xTB          :
         :: gradient norm              0.000751759760 Eh/a0 ::
         :: HOMO-LUMO gap              1.998227451459 eV    ::
         :: SCC energy               -10.417204021556 Eh    ::
         :: -> dispersion             -0.002878146722 Eh    ::
         :: repulsion energy           0.189159290787 Eh    ::

    * Orbital Energies and Occupations

         #    Occupation            Energy/Eh            Energy/eV
      -------------------------------------------------------------
         1        2.0000           -0.7519577             -20.4618
         2        2.0000           -0.6912479             -18.8098
         3        2.0000           -0.6643612             -18.0782
         4        2.0000           -0.5929037             -16.1337
         5        2.0000           -0.5729837             -15.5917
         6        2.0000           -0.5451625             -14.8346
         7        2.0000           -0.4969494             -13.5227
         8        2.0000           -0.4725147             -12.8578
         9        2.0000           -0.4676960             -12.7267
        10        2.0000           -0.4535589             -12.3420 (HOMO)
        11                         -0.3801252             -10.3437 (LUMO)
        12                         -0.3579387              -9.7400
        13                         -0.3550447              -9.6613
        14                         -0.2609432              -7.1006
        15                         -0.2159513              -5.8763
        16                         -0.0102133              -0.2779
        17                         -0.0034810              -0.0947
        18                          0.3535761               9.6213
        19                          0.4809222              13.0866
        20                          0.7356306              20.0175
      -------------------------------------------------------------
                  HL-Gap            0.0734336 Eh            1.9982 eV

     #   Z        covCN         q      C6AA      Î±(0)
     1   6 C      2.209    -0.070    32.254     9.192
     2   6 C      3.848     0.148    18.177     6.064
     3   6 C      2.209    -0.070    32.254     9.192
     4   6 C      0.982    -0.106    39.301    10.530
     5   6 C      2.885     0.097    25.842     8.334

Wiberg/Mayer (AO) data.
largest (>0.10) Wiberg bond orders for each atom
          total WBO             WBO to atom ...

molecular dipole:
                 x           y           z       tot (Debye)
 q only:       -0.275       0.006      -0.115
   full:       -0.741       0.020      -0.439       2.188
Molecule has the following symmetry elements: (sigma)
It seems to be the Cs point group

 projected vibrational frequencies (cm-1)
eigval :       -0.00    -0.00    -0.00    -0.00    -0.00     0.00
eigval :      235.23   317.90   404.63   519.62   612.05   722.44
eigval :     1428.97  1474.34  1774.01

   temp. (K)  partition function   enthalpy   heat capacity  entropy
                                   cal/mol     cal/K/mol   cal/K/mol   J/K/mol
  10.00  VIB   1.00                    0.000      0.000     -0.005
         ROT   206.                   29.809      2.981     13.565
         INT   206.                   29.809      2.981     13.561
         TR   0.277E+25               49.681      4.968     21.322
         TOT                          79.4904     7.9490    34.8826   145.9489

       T/K    H(0)-H(T)+PV         H(T)/Eh          T*S/Eh         G(T)/Eh
   ------------------------------------------------------------------------
    298.15    0.546858E-02    0.225302E-01    0.319887E-01   -0.945842E-02
    120.00    0.164236E-02    0.187040E-01    0.106062E-01    0.809780E-02
    100.00    0.132680E-02    0.183885E-01    0.855125E-02    0.983721E-02
     80.00    0.103554E-02    0.180972E-01    0.658144E-02    0.115158E-01
     60.00    0.764707E-03    0.178264E-01    0.470270E-02    0.131237E-01
     40.00    0.506947E-03    0.175686E-01    0.292632E-02    0.146423E-01
     20.00    0.253352E-03    0.173150E-01    0.128740E-02    0.160276E-01
     10.00    0.126676E-03    0.171883E-01    0.555890E-03    0.166324E-01 (used)
   ------------------------------------------------------------------------

         :::::::::::::::::::::::::::::::::::::::::::::::::::::
         ::                  THERMODYNAMIC                  ::
         :::::::::::::::::::::::::::::::::::::::::::::::::::::
         :: total free energy         -10.211412215919 Eh   ::
         ::.................................................::
         :: total energy              -10.228044658150 Eh   ::
         :: zero point energy           0.017061656112 Eh   ::
         :: G(RRHO) w/o ZPVE           -0.000429213880 Eh   ::
         :: G(RRHO) contrib.            0.016632442232 Eh   ::
         :::::::::::::::::::::::::::::::::::::::::::::::::::::

           -------------------------------------------------
          | TOTAL ENERGY              -10.228044658150 Eh   |
          | TOTAL ENTHALPY            -10.210856326023 Eh   |
          | TOTAL FREE ENERGY         -10.211412215919 Eh   |
          | GRADIENT NORM               0.000751707081 Eh/Î± |
          | HOMO-LUMO GAP               1.998231021546 eV   |
           -------------------------------------------------

 * finished run on 2020/05/12 at 11:44:33.397
