   * xtb version 6.2.2 (9d81278992624c895f80dd42a50cac0aa55982e2) compiled by '@Darwin' on 04/03/2020
          program call               : xtb --input C4N1_26_S_1.input C4N1_26_S_1.xyz --ohess --molden --namespace C4N1_26_S_1 output.out
          number of atoms            :                     5
          number of electrons        :                    21
          charge                     :                     0
          spin                       :                   0.5

   ID    Z sym.   atoms
    1    6 C      1-3, 5
    2    7 N      4

          :  Hamiltonian                  GFN2-xTB          :
 * total energy  :   -10.9233661 Eh     change        0.1495806E-08 Eh
 * total energy  :   -10.9814007 Eh     change       -0.5803458E-01 Eh
 * total energy  :   -11.0115830 Eh     change       -0.3018227E-01 Eh
 * total energy  :   -11.0287888 Eh     change       -0.1720583E-01 Eh
 * total energy  :   -11.0355577 Eh     change       -0.6768914E-02 Eh
 * total energy  :   -11.0428518 Eh     change       -0.7294117E-02 Eh
 * total energy  :   -11.0467245 Eh     change       -0.3872668E-02 Eh
 * total energy  :   -11.0506464 Eh     change       -0.3921943E-02 Eh
 * total energy  :   -11.0514000 Eh     change       -0.7535865E-03 Eh
 * total energy  :   -11.0516089 Eh     change       -0.2088259E-03 Eh
 * total energy  :   -11.0707430 Eh     change       -0.3007833E-03 Eh
 * total energy  :   -11.0709061 Eh     change       -0.1631012E-03 Eh
 * total energy  :   -11.0709444 Eh     change       -0.3827251E-04 Eh
 * total energy  :   -11.0709716 Eh     change       -0.2721300E-04 Eh
 * total energy  :   -11.0709904 Eh     change       -0.1877095E-04 Eh
 * total energy  :   -11.0710063 Eh     change       -0.1588688E-04 Eh
 * total energy  :   -11.0710122 Eh     change       -0.5943232E-05 Eh
 * total energy  :   -11.0710176 Eh     change       -0.5343356E-05 Eh
 * total energy  :   -11.0710216 Eh     change       -0.4058331E-05 Eh
   *** GEOMETRY OPTIMIZATION CONVERGED AFTER 36 ITERATIONS ***

 final structure:
================
5
 xtb: 6.2.2 (9d81278992624c895f80dd42a50cac0aa55982e2)
C         2.00792984663036    0.20626040086248    0.13761194691365
C         0.73998416896627    0.27920935924304    0.03274191049863
C        -0.73663179148708   -0.28813081725852   -0.03303774193123
N        -0.37701660100503    0.99458713534369   -0.11065017193716
C        -1.63426562310451   -1.19192607819069   -0.02666594354389

          :  Hamiltonian                  GFN2-xTB          :
         :: gradient norm              0.000580651799 Eh/a0 ::
         :: HOMO-LUMO gap              0.317177816856 eV    ::
         :: SCC energy               -11.274224077692 Eh    ::
         :: -> dispersion             -0.002908589696 Eh    ::
         :: repulsion energy           0.203202421655 Eh    ::

    * Orbital Energies and Occupations

         #    Occupation            Energy/Eh            Energy/eV
      -------------------------------------------------------------
         1        2.0000           -0.7551397             -20.5484
         2        2.0000           -0.7009294             -19.0733
         3        2.0000           -0.6835879             -18.6014
         4        2.0000           -0.6033883             -16.4190
         5        2.0000           -0.5962901             -16.2259
         6        2.0000           -0.5922689             -16.1165
         7        2.0000           -0.4879346             -13.2774
         8        2.0000           -0.4792619             -13.0414
         9        2.0000           -0.4770156             -12.9803
        10        2.0000           -0.4690037             -12.7622
        11        0.9978           -0.4272100             -11.6250 (HOMO)
        12        0.0022           -0.4155538             -11.3078 (LUMO)
        13                         -0.3206242              -8.7246
        14                         -0.2420400              -6.5862
        15                         -0.2220977              -6.0436
        16                         -0.0853995              -2.3238
        17                          0.1077402               2.9318
        18                          0.1914416               5.2094
        19                          0.7768199              21.1383
        20                          0.8537600              23.2320
      -------------------------------------------------------------
                  HL-Gap            0.0116562 Eh            0.3172 eV

     #   Z        covCN         q      C6AA      Î±(0)
     1   6 C      0.982    -0.118    39.693    10.582
     2   6 C      2.859     0.158    24.577     8.126
     3   6 C      2.859     0.158    24.579     8.126
     4   7 N      1.822    -0.081    23.558     7.192
     5   6 C      0.982    -0.118    39.692    10.582

Wiberg/Mayer (AO) data.
largest (>0.10) Wiberg bond orders for each atom
          total WBO             WBO to atom ...

molecular dipole:
                 x           y           z       tot (Debye)
 q only:       -0.024       0.064      -0.008
   full:       -0.013       0.035      -0.006       0.096
Molecule has the following symmetry elements: (C2) 2*(sigma)
It seems to be the C2v point group

 projected vibrational frequencies (cm-1)
eigval :       -0.00    -0.00    -0.00     0.00     0.00     0.00
eigval :      176.21   268.58   298.74   330.94   544.27   907.14
eigval :     1188.00  1587.94  1863.21

   temp. (K)  partition function   enthalpy   heat capacity  entropy
                                   cal/mol     cal/K/mol   cal/K/mol   J/K/mol
  10.00  VIB   1.00                    0.000      0.000     -0.011
         ROT   131.                   29.809      2.981     12.673
         INT   131.                   29.809      2.981     12.662
         TR   0.290E+25               49.681      4.968     21.419
         TOT                          79.4904     7.9490    34.0809   142.5947

       T/K    H(0)-H(T)+PV         H(T)/Eh          T*S/Eh         G(T)/Eh
   ------------------------------------------------------------------------
    298.15    0.590938E-02    0.222325E-01    0.325325E-01   -0.103000E-01
    120.00    0.175321E-02    0.180763E-01    0.106128E-01    0.746357E-02
    100.00    0.139484E-02    0.177180E-01    0.851781E-02    0.920015E-02
     80.00    0.106891E-02    0.173920E-01    0.652393E-02    0.108681E-01
     60.00    0.775524E-03    0.170986E-01    0.464033E-02    0.124583E-01
     40.00    0.508243E-03    0.168314E-01    0.287724E-02    0.139541E-01
     20.00    0.253355E-03    0.165765E-01    0.126199E-02    0.153145E-01
     10.00    0.126676E-03    0.164498E-01    0.543114E-03    0.159067E-01 (used)
   ------------------------------------------------------------------------

         :::::::::::::::::::::::::::::::::::::::::::::::::::::
         ::                  THERMODYNAMIC                  ::
         :::::::::::::::::::::::::::::::::::::::::::::::::::::
         :: total free energy         -11.055114944660 Eh   ::
         ::.................................................::
         :: total energy              -11.071021628496 Eh   ::
         :: zero point energy           0.016323122278 Eh   ::
         :: G(RRHO) w/o ZPVE           -0.000416438441 Eh   ::
         :: G(RRHO) contrib.            0.015906683837 Eh   ::
         :::::::::::::::::::::::::::::::::::::::::::::::::::::

           -------------------------------------------------
          | TOTAL ENERGY              -11.071021628496 Eh   |
          | TOTAL ENTHALPY            -11.054571830203 Eh   |
          | TOTAL FREE ENERGY         -11.055114944660 Eh   |
          | GRADIENT NORM               0.000582997052 Eh/Î± |
          | HOMO-LUMO GAP               0.317180110776 eV   |
           -------------------------------------------------

 * finished run on 2020/05/12 at 11:44:09.622
