 Gaussian 16, Revision B.01,

 --------------------------------------------------------
 #P M062X/cc-pvtz nosymm opt(noeigentest) optcyc=120 freq
 --------------------------------------------------------

 -----
 Title
 -----
 Symbolic Z-matrix:
 Charge =  0 Multiplicity = 2

 SCF Done:  E(UM062X) =  -190.826859789     A.U. after   25 cycles
 Optimization completed.
    -- Stationary point found.
 Normal termination of Gaussian 16 at Mon Sep 28 22:30:37 2020.

 -------------------------------------------------------------------
 #P Geom=AllCheck Guess=TCheck SCRF=Check GenChk UM062X/CC-pVTZ Freq
 -------------------------------------------------------------------

 Structure from the checkpoint file:  "input.chk"
 -----
 Title
 -----
 Charge =  0 Multiplicity = 2

 SCF Done:  E(UM062X) =  -190.826859789     A.U. after    1 cycles

  Exact polarizability:  29.203   0.368  29.266  -0.000   0.000 135.991
 Approx polarizability:  35.256  -0.304  35.203   0.000   0.000 209.440

                      1                      2                      3
                      A                      A                      A
 Frequencies --    128.4082               128.8311               284.5508
 Red. masses --      6.9247                 6.8458                 6.1414
 Frc consts  --      0.0673                 0.0669                 0.2930
 IR Inten    --      1.6249                 0.0846                 8.1421

                      4                      5                      6
                      A                      A                      A
 Frequencies --    369.0667               432.8651               545.8366
 Red. masses --      9.6814                 9.0280                 1.2309
 Frc consts  --      0.7770                 0.9967                 0.2161
 IR Inten    --      5.5272                 0.0352                57.8080

                      7                      8                      9
                      A                      A                      A
 Frequencies --    594.2676               765.4654               795.2882
 Red. masses --      9.2227                 9.2173                 1.3211
 Frc consts  --      1.9190                 3.1820                 0.4923
 IR Inten    --      5.7155                 9.4091                25.0437

                     10                     11                     12
                      A                      A                      A
 Frequencies --   1446.7823              1909.6293              2110.6986
 Red. masses --     10.3074                11.9798                 6.6730
 Frc consts  --     12.7118                25.7393                17.5155
 IR Inten    --    124.0756               643.8966                 1.3276

                     13
                      A
 Frequencies --   3469.2976
 Red. masses --      1.1472
 Frc consts  --      8.1350
 IR Inten    --    121.8846

 - Thermochemistry -
 -------------------
 Temperature   298.150 Kelvin.  Pressure   1.00000 Atm.
 Atom     1 has atomic number  6 and mass  12.00000

 Molecular mass:    61.00783 amu.
 Principal axes and moments of inertia in atomic units:
                           1         2         3
     Eigenvalues --     0.00000 750.54986 750.54986
           X            0.00000  -0.00000   1.00000
           Y            0.00000   1.00000   0.00000
           Z            1.00000   0.00000   0.00000
 This molecule is a prolate symmetric top.
 Rotational symmetry number  1.
 Warning -- assumption of classical behavior for rotation
           may cause significant error
 Rotational temperature (Kelvin)      0.11540
 Rotational constant (GHZ):           2.404559
 Zero-point vibrational energy      77643.5 (Joules/Mol)
                                   18.55725 (Kcal/Mol)
 Warning -- explicit consideration of   7 degrees of freedom as
           vibrations may cause significant error
 Vibrational temperatures:    184.75   185.36   409.41   531.00   622.80
          (Kelvin)            785.34   855.02  1101.33  1144.24  2081.60
                             2747.53  3036.82  4991.55

 Zero-point correction=                           0.029573 (Hartree/Particle)
 Thermal correction to Energy=                    0.034887
 Thermal correction to Enthalpy=                  0.035831
 Thermal correction to Gibbs Free Energy=         0.003487
 Sum of electronic and zero-point Energies=           -190.797287
 Sum of electronic and thermal Energies=              -190.791973
 Sum of electronic and thermal Enthalpies=            -190.791029
 Sum of electronic and thermal Free Energies=         -190.823373

                     E (Thermal)             CV                S
                      KCal/Mol        Cal/Mol-Kelvin    Cal/Mol-Kelvin
 Total                   21.892             17.129             68.074
 Electronic               0.000              0.000              1.377
 Translational            0.889              2.981             38.245
 Rotational               0.592              1.987             17.601
 Vibrational             20.411             12.161             10.851
 Vibration     1          0.611              1.925              2.970
 Vibration     2          0.611              1.924              2.963
 Vibration     3          0.683              1.702              1.506
 Vibration     4          0.741              1.536              1.084
 Vibration     5          0.794              1.399              0.849
 Vibration     6          0.901              1.149              0.553
 Vibration     7          0.952              1.044              0.460

 Optimization completed.
    -- Stationary point found.
 Normal termination of Gaussian 16 at Mon Sep 28 22:32:02 2020.
 Gaussian 16:  ES64L-G16RevB.01 20-Dec-2017

 ----------------------------------------------------------------------
 #P CCSD(T)/aug-cc-pvtz geom=allcheck guess=read SCF(maxcyc=500) SCF=QC
 ----------------------------------------------------------------------

 Structure from the checkpoint file:  "input.chk"
 -----
 Title
 -----
 Charge =  0 Multiplicity = 2

                         Standard orientation:
 ---------------------------------------------------------------------
 Center     Atomic      Atomic             Coordinates (Angstroms)
 Number     Number       Type             X           Y           Z
 ---------------------------------------------------------------------
      1          6           0        0.000000    0.000000    1.384768
      2          6           0        0.000000    0.000000    0.127678
      3          6           0        0.000000    0.000000   -1.206942
      4          6           0        0.000000    0.000000   -2.420082
      5          1           0        0.000000    0.000000   -3.483842
      6          6           0        0.000000    0.000000    2.695218
 ---------------------------------------------------------------------

 SCF Done:  E(UHF) =  -189.738414541     a.u. after   32 cycles
 E2 =    -0.6341736669D+00 EUMP2 =    -0.19037258820787D+03
 CCSD(T)
 CCSD(T)= -0.19048374674D+03

 Unable to determine electronic state:  an orbital has unidentified symmetry.
 Alpha  occ. eigenvalues --  -11.32750 -11.30242 -11.29933 -11.27586 -11.25742
 Alpha  occ. eigenvalues --   -1.14343  -1.07627  -0.97953  -0.84857  -0.75103
 Alpha  occ. eigenvalues --   -0.56884  -0.54017  -0.47934  -0.46861  -0.42684
 Alpha  occ. eigenvalues --   -0.36755
 Alpha virt. eigenvalues --   -0.00939   0.02007   0.05346   0.07045   0.07347
 Alpha virt. eigenvalues --    0.07419   0.09149   0.09178   0.09853   0.11724
 Alpha virt. eigenvalues --    0.11796   0.11872   0.14110   0.14485   0.16486

  Beta  occ. eigenvalues --  -11.29963 -11.29775 -11.28868 -11.27911 -11.27283
  Beta  occ. eigenvalues --   -1.12889  -1.07857  -0.92358  -0.83531  -0.73569
  Beta  occ. eigenvalues --   -0.52773  -0.52293  -0.45387  -0.43961  -0.42736
  Beta virt. eigenvalues --    0.02030   0.02080   0.04204   0.05382   0.07081
  Beta virt. eigenvalues --    0.07240   0.07725   0.08784   0.09107   0.09881
  Beta virt. eigenvalues --    0.11958   0.12100   0.12313   0.14157   0.16692

 Mulliken charges and spin densities:
               1          2
     1  C    1.440602  -1.234128
     2  C   -0.081273   1.715626
     3  C    0.904590  -1.275622
     4  C   -1.788281   1.275352
     5  H    0.322190  -0.115406
     6  C   -0.797828   0.634180
 Sum of Mulliken charges =   0.00000   1.00000

 Dipole moment (field-independent basis, Debye):
    X=             -0.0000    Y=             -0.0000    Z=             -4.5819  Tot=              4.5819
 Quadrupole moment (field-independent basis, Debye-Ang):
   XX=            -29.1386   YY=            -29.2910   ZZ=            -29.9970
   XY=              0.8757   XZ=             -0.0000   YZ=             -0.0000

 PMP3-0=-190.4514481\MP4SDQ=-190.4174463\CCSD=-190.4382677\CCSD(T)=-190
 Normal termination of Gaussian 16 at Mon Sep 28 23:38:18 2020.
