   * xtb version 6.2.2 (9d81278992624c895f80dd42a50cac0aa55982e2) compiled by '@Darwin' on 04/03/2020
          program call               : xtb --input C4_5_S_0.input C4_5_S_0.xyz --ohess --molden --namespace C4_5_S_0 output.out
          number of atoms            :                     4
          number of electrons        :                    16
          charge                     :                     0
          spin                       :                   0.0

   ID    Z sym.   atoms
    1    6 C      1-4

          :  Hamiltonian                  GFN2-xTB          :
 * total energy  :    -7.9560988 Eh     change       -0.3162448E-10 Eh
 * total energy  :    -7.9566069 Eh     change       -0.5081165E-03 Eh
 * total energy  :    -7.9604519 Eh     change       -0.3844988E-02 Eh
 * total energy  :    -8.0050103 Eh     change       -0.4455839E-01 Eh
 * total energy  :    -8.0637482 Eh     change       -0.5873796E-01 Eh
 * total energy  :    -8.0652898 Eh     change       -0.1541533E-02 Eh
 * total energy  :    -8.0660326 Eh     change       -0.7428179E-03 Eh
 * total energy  :    -8.0661600 Eh     change       -0.1274281E-03 Eh
 * total energy  :    -8.0661673 Eh     change       -0.7341437E-05 Eh
 * total energy  :    -8.0662468 Eh     change       -0.7941296E-04 Eh
 * total energy  :    -8.0662781 Eh     change       -0.3137181E-04 Eh
 * total energy  :    -8.0663399 Eh     change       -0.6174020E-04 Eh
 * total energy  :    -8.0663400 Eh     change       -0.8849437E-07 Eh
   *** GEOMETRY OPTIMIZATION CONVERGED AFTER 13 ITERATIONS ***

 final structure:
================
4
 xtb: 6.2.2 (9d81278992624c895f80dd42a50cac0aa55982e2)
C        -0.39369992629020    0.28177099462075    0.86052629602323
C        -0.47762921398821   -0.49836546936821   -0.70596588669167
C         0.19209597856035    0.60192353916981   -0.75877589670786
C         0.67923316171807   -0.38532906442234    0.60421448737631

          :  Hamiltonian                  GFN2-xTB          :
         :: gradient norm              0.000459261751 Eh/a0 ::
         :: HOMO-LUMO gap              0.214907651363 eV    ::
         :: SCC energy                -8.206038357125 Eh    ::
         :: -> dispersion             -0.001705611254 Eh    ::
         :: repulsion energy           0.139698389131 Eh    ::

    * Orbital Energies and Occupations

         #    Occupation            Energy/Eh            Energy/eV
      -------------------------------------------------------------
         1        2.0000           -0.7364124             -20.0388
         2        2.0000           -0.6504805             -17.7005
         3        2.0000           -0.5746370             -15.6367
         4        2.0000           -0.5745602             -15.6346
         5        2.0000           -0.5294503             -14.4071
         6        2.0000           -0.4685875             -12.7509
         7        2.0000           -0.4685403             -12.7496
         8        1.9692           -0.4243799             -11.5480 (HOMO)
         9        0.0308           -0.4164822             -11.3331 (LUMO)
        10                         -0.3371950              -9.1755
Molecule has the following symmetry elements: 3*(C2) (S4) 2*(sigma)
It seems to be the D2d point group
        11                         -0.1953242              -5.3150
        12                         -0.1895985              -5.1592
        13                         -0.1891904              -5.1481
        14                         -0.1887336              -5.1357
        15                          0.5652345              15.3808
        16                          0.5654207              15.3859
      -------------------------------------------------------------
                  HL-Gap            0.0078977 Eh            0.2149 eV

     #   Z        covCN         q      C6AA      Î±(0)
     1   6 C      2.758     0.000    28.008     8.667
     2   6 C      2.758     0.000    28.008     8.667
     3   6 C      2.758    -0.000    28.009     8.667
     4   6 C      2.758     0.000    28.008     8.667

Wiberg/Mayer (AO) data.
largest (>0.10) Wiberg bond orders for each atom
          total WBO             WBO to atom ...

molecular dipole:
                 x           y           z       tot (Debye)
 q only:       -0.000      -0.000       0.000
   full:       -0.000      -0.000       0.000       0.000

 projected vibrational frequencies (cm-1)
eigval :       -0.00    -0.00    -0.00    -0.00     0.00     0.00
eigval :     -146.13  -144.97   216.50   630.89  1633.29  1736.95

   temp. (K)  partition function   enthalpy   heat capacity  entropy
                                   cal/mol     cal/K/mol   cal/K/mol   J/K/mol
  10.00  VIB   1.00                    0.000      0.000     -0.004
         ROT   19.3                   29.809      2.981      8.865
         INT   19.3                   29.809      2.981      8.861
         TR   0.198E+25               49.681      4.968     20.657
         TOT                          79.4904     7.9490    29.5185   123.5056

       T/K    H(0)-H(T)+PV         H(T)/Eh          T*S/Eh         G(T)/Eh
   ------------------------------------------------------------------------
    298.15    0.446054E-02    0.140690E-01    0.279853E-01   -0.139163E-01
    120.00    0.160111E-02    0.112096E-01    0.953278E-02    0.167681E-02
    100.00    0.131290E-02    0.109214E-01    0.768144E-02    0.323993E-02
     80.00    0.103395E-02    0.106424E-01    0.589639E-02    0.474604E-02
     60.00    0.765575E-03    0.103741E-01    0.419092E-02    0.618313E-02
     40.00    0.507113E-03    0.101156E-01    0.258457E-02    0.753102E-02
     20.00    0.253352E-03    0.986183E-02    0.111644E-02    0.874539E-02
     10.00    0.126676E-03    0.973515E-02    0.470408E-03    0.926474E-02 (used)
   ------------------------------------------------------------------------

         :::::::::::::::::::::::::::::::::::::::::::::::::::::
         ::                  THERMODYNAMIC                  ::
         :::::::::::::::::::::::::::::::::::::::::::::::::::::
         :: total free energy          -8.057075217112 Eh   ::
         ::.................................................::
         :: total energy               -8.066339961056 Eh   ::
         :: zero point energy           0.009608475918 Eh   ::
         :: G(RRHO) w/o ZPVE           -0.000343731973 Eh   ::
         :: G(RRHO) contrib.            0.009264743945 Eh   ::
         :::::::::::::::::::::::::::::::::::::::::::::::::::::

           -------------------------------------------------
          | TOTAL ENERGY               -8.066339961056 Eh   |
          | TOTAL ENTHALPY             -8.056604809123 Eh   |
          | TOTAL FREE ENERGY          -8.057075217112 Eh   |
          | GRADIENT NORM               0.000458942223 Eh/Î± |
          | HOMO-LUMO GAP               0.214907678470 eV   |
           -------------------------------------------------

 * finished run on 2020/05/12 at 14:38:40.899
