   * xtb version 6.2.2 (9d81278992624c895f80dd42a50cac0aa55982e2) compiled by '@Darwin' on 04/03/2020
          program call               : xtb --input C3N1_10_S_1.input C3N1_10_S_1.xyz --ohess --molden --namespace C3N1_10_S_1 output.out
          number of atoms            :                     4
          number of electrons        :                    17
          charge                     :                     0
          spin                       :                   0.5

   ID    Z sym.   atoms
    1    6 C      1-3
    2    7 N      4

          :  Hamiltonian                  GFN2-xTB          :
 * total energy  :    -8.8546004 Eh     change       -0.2484590E-09 Eh
 * total energy  :    -8.8554596 Eh     change       -0.8592386E-03 Eh
 * total energy  :    -8.8556799 Eh     change       -0.2203261E-03 Eh
 * total energy  :    -8.8556838 Eh     change       -0.3872600E-05 Eh
 * total energy  :    -8.8557601 Eh     change       -0.7631063E-04 Eh
 * total energy  :    -8.8577490 Eh     change       -0.1988911E-02 Eh
 * total energy  :    -8.8820391 Eh     change       -0.2429010E-01 Eh
 * total energy  :    -8.9232401 Eh     change       -0.4120097E-01 Eh
 * total energy  :    -8.9800966 Eh     change       -0.5685648E-01 Eh
 * total energy  :    -8.9818929 Eh     change       -0.1796369E-02 Eh
 * total energy  :    -8.9828111 Eh     change       -0.1826835E-03 Eh
 * total energy  :    -8.9831287 Eh     change       -0.3176454E-03 Eh
 * total energy  :    -8.9833141 Eh     change       -0.1853802E-03 Eh
 * total energy  :    -8.9834059 Eh     change       -0.9173529E-04 Eh
 * total energy  :    -8.9834278 Eh     change       -0.2191517E-04 Eh
 * total energy  :    -8.9834381 Eh     change       -0.1030549E-04 Eh
 * total energy  :    -8.9834434 Eh     change       -0.5281400E-05 Eh
 * total energy  :    -8.9834469 Eh     change       -0.3547991E-05 Eh
 * total energy  :    -8.9834488 Eh     change       -0.1855570E-05 Eh
   *** GEOMETRY OPTIMIZATION CONVERGED AFTER 21 ITERATIONS ***

 final structure:
================
4
 xtb: 6.2.2 (9d81278992624c895f80dd42a50cac0aa55982e2)
C         0.68968074559789    0.30285076463582   -0.65495483459401
C         0.21515906016287    0.62219911863369    0.63151709193890
C        -0.57395571712079   -0.31563363695835   -0.63429604793830
N        -0.33088408863997   -0.60941624631116    0.65773479059341

          :  Hamiltonian                  GFN2-xTB          :
         :: gradient norm              0.000925837046 Eh/a0 ::
         :: HOMO-LUMO gap              2.060949755388 eV    ::
         :: SCC energy                -9.094998611110 Eh    ::
         :: -> dispersion             -0.001671664781 Eh    ::
         :: repulsion energy           0.111549850020 Eh    ::

    * Orbital Energies and Occupations

         #    Occupation            Energy/Eh            Energy/eV
      -------------------------------------------------------------
         1        2.0000           -0.7677624             -20.8919
         2        2.0000           -0.6566926             -17.8695
         3        2.0000           -0.6451424             -17.5552
         4        2.0000           -0.5911600             -16.0863
         5        2.0000           -0.5540658             -15.0769
         6        2.0000           -0.5112957             -13.9131
         7        2.0000           -0.4792658             -13.0415
         8        1.9999           -0.4498472             -12.2410
         9        1.0001           -0.4324483             -11.7675 (HOMO)
        10                         -0.3567099              -9.7066 (LUMO)
        11                         -0.2936550              -7.9908
        12                         -0.2799113              -7.6168
        13                          0.0761672               2.0726
        14                          0.1310993               3.5674
        15                          0.1751905               4.7672
        16                          0.4901207              13.3369
      -------------------------------------------------------------
                  HL-Gap            0.0757385 Eh            2.0609 eV

     #   Z        covCN         q      C6AA      Î±(0)
Molecule has the following symmetry elements: (sigma)
It seems to be the Cs point group
     1   6 C      2.513    -0.028    28.833     8.772
     2   6 C      2.769     0.049    26.893     8.493
     3   6 C      2.769     0.049    26.881     8.491
     4   7 N      2.373    -0.070    22.737     7.080

Wiberg/Mayer (AO) data.
largest (>0.10) Wiberg bond orders for each atom
          total WBO             WBO to atom ...

molecular dipole:
                 x           y           z       tot (Debye)
 q only:       -0.026       0.092      -0.053
   full:       -0.294       0.239       0.004       0.963

 projected vibrational frequencies (cm-1)
eigval :       -0.00    -0.00     0.00     0.00     0.00     0.00
eigval :      314.42   593.41   724.03  1005.26  1264.12  1507.89

   temp. (K)  partition function   enthalpy   heat capacity  entropy
                                   cal/mol     cal/K/mol   cal/K/mol   J/K/mol
  10.00  VIB   1.00                    0.000      0.000     -0.001
         ROT   71.7                   29.809      2.981     11.471
         INT   71.7                   29.809      2.981     11.470
         TR   0.210E+25               49.681      4.968     20.778
         TOT                          79.4904     7.9490    32.2485   134.9275

       T/K    H(0)-H(T)+PV         H(T)/Eh          T*S/Eh         G(T)/Eh
   ------------------------------------------------------------------------
    298.15    0.450009E-02    0.168230E-01    0.291933E-01   -0.123704E-01
    120.00    0.155671E-02    0.138796E-01    0.998928E-02    0.389032E-02
    100.00    0.128310E-02    0.136060E-01    0.807517E-02    0.553082E-02
     80.00    0.101851E-02    0.133414E-01    0.622416E-02    0.711724E-02
     60.00    0.760820E-03    0.130837E-01    0.444588E-02    0.863782E-02
     40.00    0.506722E-03    0.128296E-01    0.275796E-02    0.100716E-01
     20.00    0.253352E-03    0.125762E-01    0.120340E-02    0.113728E-01
     10.00    0.126676E-03    0.124496E-01    0.513912E-03    0.119356E-01 (used)
   ------------------------------------------------------------------------

         :::::::::::::::::::::::::::::::::::::::::::::::::::::
         ::                  THERMODYNAMIC                  ::
         :::::::::::::::::::::::::::::::::::::::::::::::::::::
         :: total free energy          -8.971513107313 Eh   ::
         ::.................................................::
         :: total energy               -8.983448756086 Eh   ::
         :: zero point energy           0.012322884641 Eh   ::
         :: G(RRHO) w/o ZPVE           -0.000387235869 Eh   ::
         :: G(RRHO) contrib.            0.011935648773 Eh   ::
         :::::::::::::::::::::::::::::::::::::::::::::::::::::

           -------------------------------------------------
          | TOTAL ENERGY               -8.983448756086 Eh   |
          | TOTAL ENTHALPY             -8.970999195429 Eh   |
          | TOTAL FREE ENERGY          -8.971513107313 Eh   |
          | GRADIENT NORM               0.000925935217 Eh/Î± |
          | HOMO-LUMO GAP               2.060948231963 eV   |
           -------------------------------------------------

 * finished run on 2020/05/12 at 11:45:06.952
