   * xtb version 6.2.2 (9d81278992624c895f80dd42a50cac0aa55982e2) compiled by '@Darwin' on 04/03/2020
          program call               : xtb --input H2C3_5_S_0.input H2C3_5_S_0.xyz --ohess --molden --namespace H2C3_5_S_0 output.out
          number of atoms            :                     5
          number of electrons        :                    14
          charge                     :                     0
          spin                       :                   0.0

   ID    Z sym.   atoms
    1    6 C      1-3
    2    1 H      4, 5

          :  Hamiltonian                  GFN2-xTB          :
 * total energy  :    -7.1205485 Eh     change        0.2448013E-08 Eh
 * total energy  :    -7.1757291 Eh     change       -0.5518057E-01 Eh
 * total energy  :    -7.2138521 Eh     change       -0.3812304E-01 Eh
 * total energy  :    -7.2304924 Eh     change       -0.1664024E-01 Eh
 * total energy  :    -7.2406728 Eh     change       -0.1018049E-01 Eh
 * total energy  :    -7.2420316 Eh     change       -0.1358801E-02 Eh
 * total energy  :    -7.2432412 Eh     change       -0.1209600E-02 Eh
 * total energy  :    -7.2433225 Eh     change       -0.8124240E-04 Eh
 * total energy  :    -7.2434006 Eh     change       -0.7813619E-04 Eh
 * total energy  :    -7.2434133 Eh     change       -0.1269763E-04 Eh
 * total energy  :    -7.2434141 Eh     change       -0.7881230E-06 Eh
   *** GEOMETRY OPTIMIZATION CONVERGED AFTER 11 ITERATIONS ***

 final structure:
================
5
 xtb: 6.2.2 (9d81278992624c895f80dd42a50cac0aa55982e2)
C        -0.67110336272253   -0.01804465704551   -0.01593550389234
C         0.67123937973017   -0.00690585522645    0.01872290471888
C        -0.00860958709527    1.24264326077151   -0.06585935739118
H        -1.54721401304017   -0.62172146580671   -0.00851983568961
H         1.55568758312780   -0.59597228269284    0.07159079225425

          :  Hamiltonian                  GFN2-xTB          :
         :: gradient norm              0.000347349951 Eh/a0 ::
         :: HOMO-LUMO gap              3.545606771411 eV    ::
         :: SCC energy                -7.383265569780 Eh    ::
         :: -> dispersion             -0.001592463662 Eh    ::
         :: repulsion energy           0.139851418905 Eh    ::

    * Orbital Energies and Occupations

         #    Occupation            Energy/Eh            Energy/eV
      -------------------------------------------------------------
         1        2.0000           -0.6751468             -18.3717
         2        2.0000           -0.5768030             -15.6956
         3        2.0000           -0.5690623             -15.4850
         4        2.0000           -0.4959846             -13.4964
         5        2.0000           -0.4875916             -13.2680
         6        2.0000           -0.4388594             -11.9420
         7        2.0000           -0.3856758             -10.4948 (HOMO)
         8                         -0.2553771              -6.9492 (LUMO)
         9                         -0.2508468              -6.8259
        10                         -0.0115463              -0.3142
        11                          0.0987045               2.6859
        12                          0.1307955               3.5591
        13                          0.4638461              12.6219
        14                          0.7348311              19.9958
      -------------------------------------------------------------
                  HL-Gap            0.1302987 Eh            3.5456 eV

     #   Z        covCN         q      C6AA      Î±(0)
     1   6 C      2.887     0.028    27.366     8.577
     2   6 C      2.887     0.028    27.366     8.577
     3   6 C      1.959    -0.169    35.922     9.679
     4   1 H      0.927     0.056     2.243     2.342
     5   1 H      0.927     0.056     2.243     2.342

Wiberg/Mayer (AO) data.
largest (>0.10) Wiberg bond orders for each atom
          total WBO             WBO to atom ...

molecular dipole:
                 x           y           z       tot (Debye)
 q only:        0.004      -0.528       0.028
   full:        0.009      -1.255       0.066       3.195

 projected vibrational frequencies (cm-1)
eigval :       -0.00    -0.00    -0.00    -0.00     0.00     0.00
eigval :      781.20   822.56   859.95   883.34  1066.54  1265.49
eigval :     1693.98  3208.77  3228.92

   temp. (K)  partition function   enthalpy   heat capacity  entropy
                                   cal/mol     cal/K/mol   cal/K/mol   J/K/mol
  10.00  VIB   1.00                    0.000      0.000     -0.000
         ROT   19.6                   29.809      2.981      8.890
         INT   19.6                   29.809      2.981      8.890
         TR   0.139E+25               49.681      4.968     19.962
         TOT                          79.4904     7.9490    28.8520   120.7169

       T/K    H(0)-H(T)+PV         H(T)/Eh          T*S/Eh         G(T)/Eh
   ------------------------------------------------------------------------
    298.15    0.409675E-02    0.355599E-01    0.269234E-01    0.863658E-02
    120.00    0.152086E-02    0.329840E-01    0.929447E-02    0.236896E-01
    100.00    0.126686E-02    0.327300E-01    0.751393E-02    0.252161E-01
     80.00    0.101341E-02    0.324766E-01    0.578499E-02    0.266916E-01
     60.00    0.760056E-03    0.322232E-01    0.412015E-02    0.281031E-01
     40.00    0.506704E-03    0.319699E-01    0.254138E-02    0.294285E-01
     20.00    0.253352E-03    0.317165E-01    0.109513E-02    0.306214E-01
     10.00    0.126676E-03    0.315899E-01    0.459786E-03    0.311301E-01 (used)
   ------------------------------------------------------------------------

         :::::::::::::::::::::::::::::::::::::::::::::::::::::
         ::                  THERMODYNAMIC                  ::
         :::::::::::::::::::::::::::::::::::::::::::::::::::::
         :: total free energy          -7.212284045539 Eh   ::
         ::.................................................::
         :: total energy               -7.243414113960 Eh   ::
         :: zero point energy           0.031463178672 Eh   ::
         :: G(RRHO) w/o ZPVE           -0.000333110251 Eh   ::
         :: G(RRHO) contrib.            0.031130068421 Eh   ::
         :::::::::::::::::::::::::::::::::::::::::::::::::::::

           -------------------------------------------------
          | TOTAL ENERGY               -7.243414113960 Eh   |
          | TOTAL ENTHALPY             -7.211824259272 Eh   |
          | TOTAL FREE ENERGY          -7.212284045539 Eh   |
          | GRADIENT NORM               0.000347270135 Eh/Î± |
          | HOMO-LUMO GAP               3.545607426667 eV   |
           -------------------------------------------------

 * finished run on 2020/05/12 at 11:44:27.276
