   * xtb version 6.2.2 (9d81278992624c895f80dd42a50cac0aa55982e2) compiled by '@Darwin' on 04/03/2020
          program call               : xtb --input H2C2O1_8_S_0.input H2C2O1_8_S_0.xyz --ohess --molden --namespace H2C2O1_8_S_0 output.out
          number of atoms            :                     5
          number of electrons        :                    16
          charge                     :                     0
          spin                       :                   0.0

   ID    Z sym.   atoms
    1    6 C      1, 2
    2    8 O      3
    3    1 H      4, 5

          :  Hamiltonian                  GFN2-xTB          :
 * total energy  :    -9.1244673 Eh     change       -0.7518430E-10 Eh
 * total energy  :    -9.1441905 Eh     change       -0.1972319E-01 Eh
 * total energy  :    -9.1790804 Eh     change       -0.3488984E-01 Eh
 * total energy  :    -9.1935427 Eh     change       -0.1446235E-01 Eh
 * total energy  :    -9.2033834 Eh     change       -0.9840640E-02 Eh
 * total energy  :    -9.2008161 Eh     change        0.2567224E-02 Eh
 * total energy  :    -9.2120271 Eh     change       -0.1121100E-01 Eh
 * total energy  :    -9.2141564 Eh     change       -0.2129319E-02 Eh
 * total energy  :    -9.2154467 Eh     change       -0.1290233E-02 Eh
 * total energy  :    -9.2158674 Eh     change       -0.4207534E-03 Eh
 * total energy  :    -9.2161021 Eh     change       -0.2346688E-03 Eh
 * total energy  :    -9.2163246 Eh     change       -0.2224508E-03 Eh
 * total energy  :    -9.2164807 Eh     change       -0.1561521E-03 Eh
 * total energy  :    -9.2165017 Eh     change       -0.2104221E-04 Eh
 * total energy  :    -9.2165103 Eh     change       -0.8598793E-05 Eh
 * total energy  :    -9.2165125 Eh     change       -0.2180353E-05 Eh
   *** GEOMETRY OPTIMIZATION CONVERGED AFTER 16 ITERATIONS ***

 final structure:
================
5
 xtb: 6.2.2 (9d81278992624c895f80dd42a50cac0aa55982e2)
C         0.63695555447025   -0.13762086842710    0.03749335299245
C        -0.63432553091846   -0.15096572851667    0.02143380929652
O        -0.00882122320915    1.14904590618967   -0.23485832384366
H         1.65214050026323   -0.41326855896983    0.10877595331933
H        -1.64594930060588   -0.44718975027606    0.06715520823535

          :  Hamiltonian                  GFN2-xTB          :
         :: gradient norm              0.001018475367 Eh/a0 ::
         :: HOMO-LUMO gap              3.301837103786 eV    ::
         :: SCC energy                -9.340779492436 Eh    ::
         :: -> dispersion             -0.001339451306 Eh    ::
         :: repulsion energy           0.124266945684 Eh    ::

    * Orbital Energies and Occupations

         #    Occupation            Energy/Eh            Energy/eV
      -------------------------------------------------------------
         1        2.0000           -0.7140369             -19.4299
         2        2.0000           -0.6344935             -17.2654
         3        2.0000           -0.6018011             -16.3758
         4        2.0000           -0.5461682             -14.8620
         5        2.0000           -0.5352023             -14.5636
         6        2.0000           -0.5047820             -13.7358
         7        2.0000           -0.4982830             -13.5590
         8        2.0000           -0.3721438             -10.1265 (HOMO)
         9                         -0.2508036              -6.8247 (LUMO)
        10                         -0.0868151              -2.3624
        11                         -0.0249181              -0.6781
        12                          0.0326700               0.8890
        13                          0.2705396               7.3618
        14                          1.0109503              27.5094
      -------------------------------------------------------------
                  HL-Gap            0.1213403 Eh            3.3018 eV

     #   Z        covCN         q      C6AA      Î±(0)
     1   6 C      2.751     0.086    26.075     8.362
     2   6 C      2.751     0.085    26.077     8.362
     3   8 O      1.685    -0.370    20.272     6.079
     4   1 H      0.928     0.100     1.788     2.091
     5   1 H      0.928     0.100     1.788     2.091

Wiberg/Mayer (AO) data.
largest (>0.10) Wiberg bond orders for each atom
          total WBO             WBO to atom ...

molecular dipole:
                 x           y           z       tot (Debye)
 q only:        0.008      -1.013       0.207
   full:        0.008      -1.083       0.221       2.810

 projected vibrational frequencies (cm-1)
eigval :       -0.00    -0.00    -0.00     0.00     0.00     0.00
eigval :      234.13   397.13   712.55   859.07   873.68  1152.05
eigval :     1843.14  3297.52  3340.88

   temp. (K)  partition function   enthalpy   heat capacity  entropy
                                   cal/mol     cal/K/mol   cal/K/mol   J/K/mol
  10.00  VIB   1.00                    0.000      0.000     -0.003
         ROT   22.4                   29.809      2.981      9.157
         INT   22.4                   29.809      2.981      9.154
         TR   0.162E+25               49.681      4.968     20.259
         TOT                          79.4904     7.9490    29.4130   123.0641

       T/K    H(0)-H(T)+PV         H(T)/Eh          T*S/Eh         G(T)/Eh
   ------------------------------------------------------------------------
    298.15    0.484996E-02    0.338058E-01    0.284510E-01    0.535481E-02
    120.00    0.160515E-02    0.305610E-01    0.951390E-02    0.210471E-01
    100.00    0.131095E-02    0.302668E-01    0.766030E-02    0.226065E-01
     80.00    0.103092E-02    0.299868E-01    0.587857E-02    0.241082E-01
     60.00    0.764092E-03    0.297199E-01    0.417892E-02    0.255410E-01
     40.00    0.506940E-03    0.294628E-01    0.257760E-02    0.268852E-01
     20.00    0.253352E-03    0.292092E-01    0.111306E-02    0.280961E-01
     10.00    0.126676E-03    0.290825E-01    0.468726E-03    0.286138E-01 (used)
   ------------------------------------------------------------------------

         :::::::::::::::::::::::::::::::::::::::::::::::::::::
         ::                  THERMODYNAMIC                  ::
         :::::::::::::::::::::::::::::::::::::::::::::::::::::
         :: total free energy          -9.187898733448 Eh   ::
         ::.................................................::
         :: total energy               -9.216512528619 Eh   ::
         :: zero point energy           0.028955845424 Eh   ::
         :: G(RRHO) w/o ZPVE           -0.000342050252 Eh   ::
         :: G(RRHO) contrib.            0.028613795171 Eh   ::
         :::::::::::::::::::::::::::::::::::::::::::::::::::::

           -------------------------------------------------
          | TOTAL ENERGY               -9.216512528619 Eh   |
          | TOTAL ENTHALPY             -9.187430007180 Eh   |
          | TOTAL FREE ENERGY          -9.187898733448 Eh   |
          | GRADIENT NORM               0.001018460689 Eh/Î± |
          | HOMO-LUMO GAP               3.301836382416 eV   |
           -------------------------------------------------

 * finished run on 2020/05/12 at 11:45:15.703
