   * xtb version 6.2.2 (9d81278992624c895f80dd42a50cac0aa55982e2) compiled by '@Darwin' on 04/03/2020
          program call               : xtb --input H1C1_0_S_1.input H1C1_0_S_1.xyz --ohess --molden --namespace H1C1_0_S_1 output.out
          number of atoms            :                     2
          number of electrons        :                     5
          charge                     :                     0
          spin                       :                   0.5

   ID    Z sym.   atoms
    1    6 C      1
    2    1 H      2

          :  Hamiltonian                  GFN2-xTB          :
 * total energy  :    -2.3809091 Eh     change        0.1355360E-09 Eh
 * total energy  :    -2.3809166 Eh     change       -0.7459725E-05 Eh
 * total energy  :    -2.3809173 Eh     change       -0.6985895E-06 Eh
   *** GEOMETRY OPTIMIZATION CONVERGED AFTER 3 ITERATIONS ***

 final structure:
================
2
 xtb: 6.2.2 (9d81278992624c895f80dd42a50cac0aa55982e2)
C         0.55710589519544   -0.00000000000000    0.00000000000000
H        -0.55710589519544    0.00000000000000    0.00000000000000

          :  Hamiltonian                  GFN2-xTB          :
         :: gradient norm              0.000472954018 Eh/a0 ::
         :: HOMO-LUMO gap              0.000000000000 eV    ::
         :: SCC energy                -2.394766573476 Eh    ::
         :: -> dispersion             -0.000105357254 Eh    ::
         :: repulsion energy           0.013849278142 Eh    ::

    * Orbital Energies and Occupations

         #    Occupation            Energy/Eh            Energy/eV
      -------------------------------------------------------------
         1        2.0000           -0.6319055             -17.1950
         2        2.0000           -0.4646421             -12.6436
         3        0.5000           -0.3955756             -10.7642 (HOMO)
         4        0.5000           -0.3955756             -10.7642 (LUMO)
         5                          0.1072591               2.9187
      -------------------------------------------------------------
                  HL-Gap            0.0000000 Eh            0.0000 eV

     #   Z        covCN         q      C6AA      α(0)
     1   6 C      0.921    -0.130    39.671    10.546
     2   1 H      0.921     0.130     1.535     1.938

Wiberg/Mayer (AO) data.
largest (>0.10) Wiberg bond orders for each atom
          total WBO             WBO to atom ...

molecular dipole:
                 x           y           z       tot (Debye)
 q only:       -0.274       0.000       0.000
   full:       -0.648       0.000       0.000       1.647

   temp. (K)  partition function   enthalpy   heat capacity  entropy
                                   cal/mol     cal/K/mol   cal/K/mol   J/K/mol
  10.00  VIB   1.00                    0.000      0.000     -0.000
         ROT  0.476                   19.873      1.987      0.512
         INT  0.476                   19.873      1.987      0.512
         TR   0.279E+24               49.681      4.968     16.767
         TOT                          69.5541     6.9554    17.2788    72.2945

       T/K    H(0)-H(T)+PV         H(T)/Eh          T*S/Eh         G(T)/Eh
   ------------------------------------------------------------------------
    298.15    0.330476E-02    0.959346E-02    0.194255E-01   -0.983200E-02
    120.00    0.133010E-02    0.761879E-02    0.660828E-02    0.101051E-02
    100.00    0.110842E-02    0.739711E-02    0.530488E-02    0.209223E-02
     80.00    0.886732E-03    0.717543E-02    0.404611E-02    0.312932E-02
     60.00    0.665049E-03    0.695374E-02    0.284332E-02    0.411042E-02
     40.00    0.443366E-03    0.673206E-02    0.171584E-02    0.501622E-02
     20.00    0.221683E-03    0.651038E-02    0.704316E-03    0.580606E-02
     10.00    0.110842E-03    0.639954E-02    0.275355E-03    0.612418E-02 (used)
   ------------------------------------------------------------------------

         :::::::::::::::::::::::::::::::::::::::::::::::::::::
         ::                  THERMODYNAMIC                  ::
         :::::::::::::::::::::::::::::::::::::::::::::::::::::
         :: total free energy          -2.374793113606 Eh   ::
         ::.................................................::
         :: total energy               -2.380917295333 Eh   ::
         :: zero point energy           0.006288695480 Eh   ::
         :: G(RRHO) w/o ZPVE           -0.000164513752 Eh   ::
         :: G(RRHO) contrib.            0.006124181728 Eh   ::
         :::::::::::::::::::::::::::::::::::::::::::::::::::::

           -------------------------------------------------
          | TOTAL ENERGY               -2.380917295333 Eh   |
          | TOTAL ENTHALPY             -2.374517758340 Eh   |
          | TOTAL FREE ENERGY          -2.374793113606 Eh   |
          | GRADIENT NORM               0.000472954081 Eh/α |
          | HOMO-LUMO GAP               0.000000000007 eV   |
           -------------------------------------------------

 * finished run on 2020/05/12 at 11:44:28.862
