   * xtb version 6.2.2 (9d81278992624c895f80dd42a50cac0aa55982e2) compiled by '@Darwin' on 04/03/2020
          program call               : xtb --input H1C3N1_0_S_2.input H1C3N1_0_S_2.xyz --ohess --molden --namespace H1C3N1_0_S_2 output.out
          number of atoms            :                     5
          number of electrons        :                    18
          charge                     :                     0
          spin                       :                   1.0

   ID    Z sym.   atoms
    1    6 C      1-3
    2    7 N      4
    3    1 H      5

          :  Hamiltonian                  GFN2-xTB          :
 * total energy  :    -9.3339393 Eh     change        0.1911005E-10 Eh
 * total energy  :    -9.3893444 Eh     change       -0.5540510E-01 Eh
 * total energy  :    -9.4152209 Eh     change       -0.2587647E-01 Eh
 * total energy  :    -9.4351162 Eh     change       -0.1989531E-01 Eh
 * total energy  :    -9.4697611 Eh     change       -0.3464490E-01 Eh
 * total energy  :    -9.4275863 Eh     change        0.4217480E-01 Eh
 * total energy  :    -9.4866473 Eh     change       -0.5906097E-01 Eh
 * total energy  :    -9.4932714 Eh     change       -0.6624146E-02 Eh
 * total energy  :    -9.4996725 Eh     change       -0.6401122E-02 Eh
 * total energy  :    -9.5050120 Eh     change       -0.5339519E-02 Eh
 * total energy  :    -9.5215510 Eh     change       -0.7141517E-04 Eh
 * total energy  :    -9.5216513 Eh     change       -0.1002978E-03 Eh
 * total energy  :    -9.5217344 Eh     change       -0.8312025E-04 Eh
 * total energy  :    -9.5200276 Eh     change        0.1706790E-02 Eh
 * total energy  :    -9.5217996 Eh     change       -0.1771986E-02 Eh
 * total energy  :    -9.5218098 Eh     change       -0.1014176E-04 Eh
 * total energy  :    -9.5218231 Eh     change       -0.1331307E-04 Eh
 * total energy  :    -9.5218352 Eh     change       -0.1208696E-04 Eh
 * total energy  :    -9.5218371 Eh     change       -0.1958860E-05 Eh
   *** GEOMETRY OPTIMIZATION CONVERGED AFTER 27 ITERATIONS ***

 final structure:
================
5
 xtb: 6.2.2 (9d81278992624c895f80dd42a50cac0aa55982e2)
C         1.09908591300922    0.24528236266605    0.09408059128428
C        -0.19278231771631    0.09603679605033    0.02043139210595
C        -1.53549909109927    0.63273867172702    0.12999687860552
N        -1.34509919895995   -0.62885652836189   -0.20371001892191
H         1.97429469476630   -0.34520130208151   -0.04079884307384

          :  Hamiltonian                  GFN2-xTB          :
         :: gradient norm              0.000625445796 Eh/a0 ::
         :: HOMO-LUMO gap              1.633330274918 eV    ::
         :: SCC energy                -9.672525938727 Eh    ::
         :: -> dispersion             -0.002104931152 Eh    ::
         :: repulsion energy           0.150688835478 Eh    ::

    * Orbital Energies and Occupations

         #    Occupation            Energy/Eh            Energy/eV
      -------------------------------------------------------------
         1        2.0000           -0.7208013             -19.6140
         2        2.0000           -0.6543212             -17.8050
         3        2.0000           -0.5828945             -15.8614
         4        2.0000           -0.5678051             -15.4508
         5        2.0000           -0.5527304             -15.0406
         6        2.0000           -0.5216108             -14.1938
         7        2.0000           -0.4538294             -12.3493
         8        1.7895           -0.4296750             -11.6921
         9        1.2105           -0.4271629             -11.6237
        10        1.0000           -0.3575813              -9.7303 (HOMO)
        11                         -0.2975573              -8.0969 (LUMO)
        12                         -0.2146808              -5.8418
        13                         -0.0412255              -1.1218
        14                          0.0764858               2.0813
        15                          0.2415230               6.5722
        16                          0.3670592               9.9882
        17                          0.8195284              22.3005
      -------------------------------------------------------------
                  HL-Gap            0.0600240 Eh            1.6333 eV

     #   Z        covCN         q      C6AA      Î±(0)
     1   6 C      1.908    -0.098    33.804     9.390
     2   6 C      2.869     0.154    24.666     8.141
     3   6 C      1.890    -0.050    32.459     9.202
     4   7 N      1.820    -0.108    24.115     7.276
     5   1 H      0.927     0.101     1.772     2.082

Wiberg/Mayer (AO) data.
largest (>0.10) Wiberg bond orders for each atom
          total WBO             WBO to atom ...

molecular dipole:
                 x           y           z       tot (Debye)
 q only:        0.538      -0.015       0.010
Molecule has the following symmetry elements: (sigma)
It seems to be the Cs point group
   full:        0.790      -0.265      -0.051       2.121

 projected vibrational frequencies (cm-1)
eigval :       -0.00    -0.00     0.00     0.00     0.00     0.00
eigval :      330.18   350.99   540.56   608.93   676.43   858.81
eigval :     1279.44  1789.87  3184.49

   temp. (K)  partition function   enthalpy   heat capacity  entropy
                                   cal/mol     cal/K/mol   cal/K/mol   J/K/mol
  10.00  VIB   1.00                    0.000      0.000     -0.002
         ROT   107.                   29.809      2.981     12.270
         INT   107.                   29.809      2.981     12.268
         TR   0.217E+25               49.681      4.968     20.838
         TOT                          79.4904     7.9490    33.1056   138.5139

       T/K    H(0)-H(T)+PV         H(T)/Eh          T*S/Eh         G(T)/Eh
   ------------------------------------------------------------------------
    298.15    0.507088E-02    0.269862E-01    0.304272E-01   -0.344106E-02
    120.00    0.158024E-02    0.234955E-01    0.101816E-01    0.133139E-01
    100.00    0.129187E-02    0.232072E-01    0.822213E-02    0.149850E-01
     80.00    0.102050E-02    0.229358E-01    0.633578E-02    0.166000E-01
     60.00    0.760965E-03    0.226763E-01    0.452806E-02    0.181482E-01
     40.00    0.506720E-03    0.224220E-01    0.281263E-02    0.196094E-01
     20.00    0.253352E-03    0.221686E-01    0.123072E-02    0.209379E-01
     10.00    0.126676E-03    0.220420E-01    0.527572E-03    0.215144E-01 (used)
   ------------------------------------------------------------------------

         :::::::::::::::::::::::::::::::::::::::::::::::::::::
         ::                  THERMODYNAMIC                  ::
         :::::::::::::::::::::::::::::::::::::::::::::::::::::
         :: total free energy          -9.500322729086 Eh   ::
         ::.................................................::
         :: total energy               -9.521837119202 Eh   ::
         :: zero point energy           0.021915285751 Eh   ::
         :: G(RRHO) w/o ZPVE           -0.000400895635 Eh   ::
         :: G(RRHO) contrib.            0.021514390116 Eh   ::
         :::::::::::::::::::::::::::::::::::::::::::::::::::::

           -------------------------------------------------
          | TOTAL ENERGY               -9.521837119202 Eh   |
          | TOTAL ENTHALPY             -9.499795157435 Eh   |
          | TOTAL FREE ENERGY          -9.500322729086 Eh   |
          | GRADIENT NORM               0.000627854017 Eh/Î± |
          | HOMO-LUMO GAP               1.633335015931 eV   |
           -------------------------------------------------

 * finished run on 2020/05/12 at 11:44:50.198
