   * xtb version 6.2.2 (9d81278992624c895f80dd42a50cac0aa55982e2) compiled by '@Darwin' on 04/03/2020
          program call               : xtb --input C4N1_2_S_3.input C4N1_2_S_3.xyz --ohess --molden --namespace C4N1_2_S_3 output.out
          number of atoms            :                     5
          number of electrons        :                    21
          charge                     :                     0
          spin                       :                   1.5

   ID    Z sym.   atoms
    1    7 N      1
    2    6 C      2-5

          :  Hamiltonian                  GFN2-xTB          :
 * total energy  :   -10.8175808 Eh     change       -0.2527633E-08 Eh
 * total energy  :   -10.9269204 Eh     change       -0.1093396E+00 Eh
 * total energy  :   -10.9298534 Eh     change       -0.2933006E-02 Eh
 * total energy  :   -10.9715427 Eh     change       -0.4168927E-01 Eh
 * total energy  :   -10.9731901 Eh     change       -0.1647437E-02 Eh
 * total energy  :   -10.9885301 Eh     change       -0.1533996E-01 Eh
 * total energy  :   -10.9984607 Eh     change       -0.9930611E-02 Eh
 * total energy  :   -11.0025497 Eh     change       -0.4089046E-02 Eh
 * total energy  :   -11.0097831 Eh     change       -0.7233335E-02 Eh
 * total energy  :   -11.0158805 Eh     change       -0.6097435E-02 Eh
 * total energy  :   -11.0959358 Eh     change       -0.1973798E-04 Eh
 * total energy  :   -11.0959441 Eh     change       -0.8264378E-05 Eh
 * total energy  :   -11.0959624 Eh     change       -0.1834916E-04 Eh
 * total energy  :   -11.0959828 Eh     change       -0.2036050E-04 Eh
 * total energy  :   -11.0960029 Eh     change       -0.2009396E-04 Eh
 * total energy  :   -11.0960175 Eh     change       -0.1461277E-04 Eh
 * total energy  :   -11.0960298 Eh     change       -0.1231993E-04 Eh
 * total energy  :   -11.0960378 Eh     change       -0.7952055E-05 Eh
 * total energy  :   -11.0960399 Eh     change       -0.2179196E-05 Eh
   *** GEOMETRY OPTIMIZATION CONVERGED AFTER 65 ITERATIONS ***

 final structure:
================
5
 xtb: 6.2.2 (9d81278992624c895f80dd42a50cac0aa55982e2)
N        -1.14479995897655    0.54544720358358   -0.07838167061777
C        -0.02345715431085    0.01798715732646   -0.00121446986523
C         1.13923583480972   -0.54408990219255    0.07559357371664
C        -2.22610576381698    1.05799015266542   -0.14829841349121
C         2.25512704229465   -1.07733561138291    0.15229998025759

          :  Hamiltonian                  GFN2-xTB          :
         :: gradient norm              0.000717811407 Eh/a0 ::
         :: HOMO-LUMO gap              3.454275307899 eV    ::
         :: SCC energy               -11.367526691391 Eh    ::
         :: -> dispersion             -0.002674963136 Eh    ::
         :: repulsion energy           0.271487874608 Eh    ::

    * Orbital Energies and Occupations

         #    Occupation            Energy/Eh            Energy/eV
      -------------------------------------------------------------
         1        2.0000           -0.6971792             -18.9712
         2        2.0000           -0.6703319             -18.2407
         3        2.0000           -0.6524802             -17.7549
         4        2.0000           -0.6042403             -16.4422
         5        2.0000           -0.5576286             -15.1738
         6        2.0000           -0.5576281             -15.1738
         7        2.0000           -0.4808160             -13.0837
         8        2.0000           -0.4808151             -13.0836
         9        2.0000           -0.4566145             -12.4251
        10        1.0000           -0.4325790             -11.7711
        11        1.0000           -0.3675646             -10.0019
        12        1.0000           -0.3675610             -10.0018 (HOMO)
        13                         -0.2406186              -6.5476 (LUMO)
        14                         -0.2406158              -6.5475
        15                         -0.1090188              -2.9666
        16                         -0.1090058              -2.9662
        17                          0.0574640               1.5637
        18                          0.4877945              13.2736
        19                          0.9898784              26.9360
        20                          1.4358569              39.0717
      -------------------------------------------------------------
                  HL-Gap            0.1269424 Eh            3.4543 eV

     #   Z        covCN         q      C6AA      Î±(0)
     1   7 N      1.822     0.098    20.175     6.655
     2   6 C      1.903     0.056    29.688     8.800
     3   6 C      1.962     0.021    30.531     8.923
     4   6 C      0.920    -0.134    39.810    10.564
     5   6 C      0.983    -0.041    37.190    10.244

Wiberg/Mayer (AO) data.
largest (>0.10) Wiberg bond orders for each atom
          total WBO             WBO to atom ...

molecular dipole:
                 x           y           z       tot (Debye)
 q only:        0.220      -0.103       0.014
   full:        0.598      -0.283       0.039       1.685

 projected vibrational frequencies (cm-1)
eigval :       -0.00    -0.00    -0.00    -0.00     0.00     0.00
eigval :       76.30   204.29   212.10   354.85   355.87   828.88
eigval :     1648.02  1887.70  1994.62

   temp. (K)  partition function   enthalpy   heat capacity  entropy
                                   cal/mol     cal/K/mol   cal/K/mol   J/K/mol
  10.00  VIB   1.00                    0.004      0.004     -0.049
         ROT   2.33                   29.809      2.981      4.666
         INT   2.33                   29.813      2.985      4.617
         TR   0.290E+25               49.681      4.968     21.419
         TOT                          79.4941     7.9531    26.0369   108.9382

       T/K    H(0)-H(T)+PV         H(T)/Eh          T*S/Eh         G(T)/Eh
   ------------------------------------------------------------------------
    298.15    0.643943E-02    0.236683E-01    0.301777E-01   -0.650932E-02
    120.00    0.196944E-02    0.191984E-01    0.948506E-02    0.971330E-02
    100.00    0.156040E-02    0.187893E-01    0.753559E-02    0.112537E-01
     80.00    0.118295E-02    0.184119E-01    0.569553E-02    0.127163E-01
     60.00    0.840159E-03    0.180691E-01    0.397915E-02    0.140899E-01
     40.00    0.531667E-03    0.177606E-01    0.240472E-02    0.153559E-01
     20.00    0.254795E-03    0.174837E-01    0.101041E-02    0.164733E-01
     10.00    0.126682E-03    0.173556E-01    0.414924E-03    0.169407E-01 (used)
   ------------------------------------------------------------------------

         :::::::::::::::::::::::::::::::::::::::::::::::::::::
         ::                  THERMODYNAMIC                  ::
         :::::::::::::::::::::::::::::::::::::::::::::::::::::
         :: total free energy         -11.079099257685 Eh   ::
         ::.................................................::
         :: total energy              -11.096039934822 Eh   ::
         :: zero point energy           0.017228918875 Eh   ::
         :: G(RRHO) w/o ZPVE           -0.000288241738 Eh   ::
         :: G(RRHO) contrib.            0.016940677137 Eh   ::
         :::::::::::::::::::::::::::::::::::::::::::::::::::::

           -------------------------------------------------
          | TOTAL ENERGY              -11.096039934822 Eh   |
          | TOTAL ENTHALPY            -11.078684333995 Eh   |
          | TOTAL FREE ENERGY         -11.079099257685 Eh   |
          | GRADIENT NORM               0.000718095323 Eh/Î± |
          | HOMO-LUMO GAP               3.454278917977 eV   |
           -------------------------------------------------

 * finished run on 2020/05/12 at 11:43:58.040
