   * xtb version 6.2.2 (9d81278992624c895f80dd42a50cac0aa55982e2) compiled by '@Darwin' on 04/03/2020
          program call               : xtb --input C4N1_9_S_3.input C4N1_9_S_3.xyz --ohess --molden --namespace C4N1_9_S_3 output.out
          number of atoms            :                     5
          number of electrons        :                    21
          charge                     :                     0
          spin                       :                   1.5

   ID    Z sym.   atoms
    1    7 N      1
    2    6 C      2-5

          :  Hamiltonian                  GFN2-xTB          :
 * total energy  :   -10.8125359 Eh     change        0.3957581E-09 Eh
 * total energy  :   -10.8596418 Eh     change       -0.4710591E-01 Eh
 * total energy  :   -10.5859157 Eh     change        0.2737261E+00 Eh
 * total energy  :   -10.8970181 Eh     change       -0.3111024E+00 Eh
 * total energy  :   -10.9098957 Eh     change       -0.1287762E-01 Eh
 * total energy  :   -10.9276324 Eh     change       -0.1773670E-01 Eh
 * total energy  :   -10.9396866 Eh     change       -0.1205421E-01 Eh
 * total energy  :   -10.9502721 Eh     change       -0.1058550E-01 Eh
 * total energy  :   -10.9753825 Eh     change       -0.2511040E-01 Eh
 * total energy  :   -10.9832868 Eh     change       -0.7904329E-02 Eh
 * total energy  :   -11.0779588 Eh     change       -0.1218543E-03 Eh
 * total energy  :   -11.0780580 Eh     change       -0.9925467E-04 Eh
 * total energy  :   -11.0781053 Eh     change       -0.4726475E-04 Eh
 * total energy  :   -11.0781589 Eh     change       -0.5355941E-04 Eh
 * total energy  :   -11.0782027 Eh     change       -0.4383589E-04 Eh
 * total energy  :   -11.0782449 Eh     change       -0.4219598E-04 Eh
 * total energy  :   -11.0782644 Eh     change       -0.1954553E-04 Eh
 * total energy  :   -11.0782691 Eh     change       -0.4662261E-05 Eh
 * total energy  :   -11.0782703 Eh     change       -0.1220526E-05 Eh
   *** GEOMETRY OPTIMIZATION CONVERGED AFTER 35 ITERATIONS ***

 final structure:
================
5
 xtb: 6.2.2 (9d81278992624c895f80dd42a50cac0aa55982e2)
N        -1.95538041296879    1.14835442285101    0.00970331468529
C        -0.93797519383303    0.55130623801172    0.00443546111258
C         1.35059106316002   -0.80063036758780    0.64209903544645
C         0.19041442740531   -0.11166045526801   -0.00138134922148
C         1.35235011623649   -0.78736983800691   -0.65485646202284

          :  Hamiltonian                  GFN2-xTB          :
         :: gradient norm              0.000340628486 Eh/a0 ::
         :: HOMO-LUMO gap              2.438394423242 eV    ::
         :: SCC energy               -11.309644845853 Eh    ::
         :: -> dispersion             -0.002665777084 Eh    ::
         :: repulsion energy           0.231374651415 Eh    ::

    * Orbital Energies and Occupations

         #    Occupation            Energy/Eh            Energy/eV
      -------------------------------------------------------------
         1        2.0000           -0.7239412             -19.6994
         2        2.0000           -0.6776026             -18.4385
         3        2.0000           -0.6451733             -17.5561
         4        2.0000           -0.5799488             -15.7812
         5        2.0000           -0.5572367             -15.1632
         6        2.0000           -0.5499720             -14.9655
         7        2.0000           -0.5124785             -13.9453
         8        2.0000           -0.4978652             -13.5476
         9        2.0000           -0.4549264             -12.3792
        10        1.0000           -0.4294816             -11.6868
        11        1.0000           -0.4233560             -11.5201
        12        1.0000           -0.3684429             -10.0258 (HOMO)
        13                         -0.2788334              -7.5874 (LUMO)
        14                         -0.2496110              -6.7923
        15                         -0.1634758              -4.4484
        16                         -0.0232483              -0.6326
        17                         -0.0096287              -0.2620
        18                          0.4344612              11.8223
        19                          0.5616612              15.2836
        20                          1.1997274              32.6462
      -------------------------------------------------------------
                  HL-Gap            0.0896094 Eh            2.4384 eV

     #   Z        covCN         q      C6AA      Î±(0)
     1   7 N      0.912    -0.187    25.055     7.239
     2   6 C      1.891     0.111    28.378     8.604
     3   6 C      1.958     0.003    30.996     8.991
     4   6 C      2.937     0.070    26.426     8.431
     5   6 C      1.958     0.003    30.996     8.991

Wiberg/Mayer (AO) data.
largest (>0.10) Wiberg bond orders for each atom
          total WBO             WBO to atom ...

molecular dipole:
                 x           y           z       tot (Debye)
 q only:        0.537      -0.315      -0.003
   full:        0.857      -0.503      -0.004       2.526

 projected vibrational frequencies (cm-1)
eigval :       -0.00    -0.00    -0.00     0.00     0.00     0.00
eigval :      136.94   164.76   354.56   454.65   586.06   726.49
eigval :     1451.65  1808.67  2070.50

   temp. (K)  partition function   enthalpy   heat capacity  entropy
                                   cal/mol     cal/K/mol   cal/K/mol   J/K/mol
  10.00  VIB   1.00                    0.000      0.000     -0.024
         ROT   112.                   29.809      2.981     12.362
         INT   112.                   29.809      2.981     12.337
         TR   0.290E+25               49.681      4.968     21.419
         TOT                          79.4904     7.9490    33.7568   141.2386

       T/K    H(0)-H(T)+PV         H(T)/Eh          T*S/Eh         G(T)/Eh
   ------------------------------------------------------------------------
    298.15    0.595545E-02    0.236210E-01    0.326850E-01   -0.906395E-02
    120.00    0.182601E-02    0.194916E-01    0.106904E-01    0.880113E-02
    100.00    0.145878E-02    0.191243E-01    0.857467E-02    0.105497E-01
     80.00    0.111582E-02    0.187814E-01    0.655430E-02    0.122271E-01
     60.00    0.799450E-03    0.184650E-01    0.464331E-02    0.138217E-01
     40.00    0.513279E-03    0.181788E-01    0.286407E-02    0.153148E-01
     20.00    0.253390E-03    0.179189E-01    0.125208E-02    0.166669E-01
     10.00    0.126676E-03    0.177922E-01    0.537950E-03    0.172543E-01 (used)
   ------------------------------------------------------------------------

         :::::::::::::::::::::::::::::::::::::::::::::::::::::
         ::                  THERMODYNAMIC                  ::
         :::::::::::::::::::::::::::::::::::::::::::::::::::::
         :: total free energy         -11.061016029792 Eh   ::
         ::.................................................::
         :: total energy              -11.078270315239 Eh   ::
         :: zero point energy           0.017665559013 Eh   ::
         :: G(RRHO) w/o ZPVE           -0.000411273566 Eh   ::
         :: G(RRHO) contrib.            0.017254285446 Eh   ::
         :::::::::::::::::::::::::::::::::::::::::::::::::::::

           -------------------------------------------------
          | TOTAL ENERGY              -11.078270315239 Eh   |
          | TOTAL ENTHALPY            -11.060478080208 Eh   |
          | TOTAL FREE ENERGY         -11.061016029792 Eh   |
          | GRADIENT NORM               0.000340558458 Eh/Î± |
          | HOMO-LUMO GAP               2.438397233109 eV   |
           -------------------------------------------------

 * finished run on 2020/05/12 at 11:44:01.718
