   * xtb version 6.2.2 (9d81278992624c895f80dd42a50cac0aa55982e2) compiled by '@Darwin' on 04/03/2020
          program call               : xtb --input H3C1O1_1_S_3.input H3C1O1_1_S_3.xyz --ohess --molden --namespace H3C1O1_1_S_3 output.out
          number of atoms            :                     5
          number of electrons        :                    13
          charge                     :                     0
          spin                       :                   1.5

   ID    Z sym.   atoms
    1    8 O      1
    2    6 C      2
    3    1 H      3-5

          :  Hamiltonian                  GFN2-xTB          :
 * total energy  :    -7.0885071 Eh     change        0.2581713E-09 Eh
 * total energy  :    -7.2702539 Eh     change       -0.1817467E+00 Eh
 * total energy  :    -7.3212071 Eh     change       -0.5095320E-01 Eh
 * total energy  :    -7.3384637 Eh     change       -0.1725667E-01 Eh
 * total energy  :    -7.3445795 Eh     change       -0.6115765E-02 Eh
 * total energy  :    -7.3462099 Eh     change       -0.1630412E-02 Eh
 * total energy  :    -7.3473418 Eh     change       -0.1131867E-02 Eh
 * total energy  :    -7.3476849 Eh     change       -0.3431122E-03 Eh
 * total energy  :    -7.3480235 Eh     change       -0.3386342E-03 Eh
 * total energy  :    -7.3482841 Eh     change       -0.2605949E-03 Eh
 * total energy  :    -7.3485284 Eh     change       -0.2442624E-03 Eh
 * total energy  :    -7.3489000 Eh     change       -0.3715747E-03 Eh
 * total energy  :    -7.3495836 Eh     change       -0.6836012E-03 Eh
 * total energy  :    -7.3494222 Eh     change        0.1613340E-03 Eh
 * total energy  :    -7.3500011 Eh     change       -0.5788646E-03 Eh
 * total energy  :    -7.3500300 Eh     change       -0.2894599E-04 Eh
 * total energy  :    -7.3500687 Eh     change       -0.3863114E-04 Eh
 * total energy  :    -7.3500690 Eh     change       -0.3185069E-06 Eh
   *** GEOMETRY OPTIMIZATION CONVERGED AFTER 18 ITERATIONS ***

 final structure:
================
5
 xtb: 6.2.2 (9d81278992624c895f80dd42a50cac0aa55982e2)
O         1.60426539491553   -0.09078341017180    0.02701282321361
C        -0.53801881758976    0.03044675122229   -0.00905868020835
H        -0.38128943548878   -0.12362765620471    1.04788698455065
H        -0.29300192131487    1.00345139819361   -0.40738791851513
H        -0.39195622052212   -0.81948708303939   -0.65845320904079

          :  Hamiltonian                  GFN2-xTB          :
         :: gradient norm              0.000143748366 Eh/a0 ::
         :: HOMO-LUMO gap             11.949420329236 eV    ::
         :: SCC energy                -7.404794909910 Eh    ::
         :: -> dispersion             -0.000862558508 Eh    ::
         :: repulsion energy           0.054725901875 Eh    ::

    * Orbital Energies and Occupations

         #    Occupation            Energy/Eh            Energy/eV
      -------------------------------------------------------------
         1        2.0000           -0.6667078             -18.1420
         2        2.0000           -0.6043752             -16.4459
         3        2.0000           -0.5071205             -13.7995
         4        2.0000           -0.5071204             -13.7994
         5        2.0000           -0.4922919             -13.3959
         6        1.0000           -0.4705429             -12.8041
         7        1.0000           -0.4705427             -12.8041
         8        1.0000           -0.3295129              -8.9665 (HOMO)
         9                          0.1096202               2.9829 (LUMO)
        10                          0.2423641               6.5951
        11                          0.2423664               6.5951
      -------------------------------------------------------------
                  HL-Gap            0.4391331 Eh           11.9494 eV

     #   Z        covCN         q      C6AA      Î±(0)
     1   8 O      0.033    -0.274    19.879     5.873
     2   6 C      2.810    -0.138    31.533     9.200
     3   1 H      0.926     0.137     1.480     1.902
     4   1 H      0.926     0.137     1.480     1.902
     5   1 H      0.926     0.137     1.480     1.902

Wiberg/Mayer (AO) data.
largest (>0.10) Wiberg bond orders for each atom
          total WBO             WBO to atom ...

molecular dipole:
                 x           y           z       tot (Debye)
 q only:       -0.966       0.055      -0.016
   full:       -0.794       0.045      -0.013       2.021

 projected vibrational frequencies (cm-1)
eigval :       -0.00    -0.00     0.00     0.00     0.00     0.00
eigval :     -391.57  -391.47   340.11   644.20  1133.66  1133.73
eigval :     3014.93  3050.86  3050.89

   temp. (K)  partition function   enthalpy   heat capacity  entropy
                                   cal/mol     cal/K/mol   cal/K/mol   J/K/mol
  10.00  VIB   1.00                    0.000      0.000     -0.001
         ROT   10.5                   29.809      2.981      7.653
         INT   10.5                   29.809      2.981      7.652
         TR   0.103E+25               49.681      4.968     19.355
         TOT                          79.4904     7.9490    27.0073   112.9987

       T/K    H(0)-H(T)+PV         H(T)/Eh          T*S/Eh         G(T)/Eh
   ------------------------------------------------------------------------
    298.15    0.433011E-02    0.325073E-01    0.264588E-01    0.604851E-02
    120.00    0.154813E-02    0.297254E-01    0.897577E-02    0.207496E-01
    100.00    0.127874E-02    0.294560E-01    0.723440E-02    0.222216E-01
     80.00    0.101686E-02    0.291941E-01    0.555394E-02    0.236401E-01
     60.00    0.760502E-03    0.289377E-01    0.394434E-02    0.249934E-01
     40.00    0.506712E-03    0.286839E-01    0.242384E-02    0.262601E-01
     20.00    0.253352E-03    0.284306E-01    0.103635E-02    0.273942E-01
     10.00    0.126676E-03    0.283039E-01    0.430389E-03    0.278735E-01 (used)
   ------------------------------------------------------------------------

         :::::::::::::::::::::::::::::::::::::::::::::::::::::
         ::                  THERMODYNAMIC                  ::
         :::::::::::::::::::::::::::::::::::::::::::::::::::::
         :: total free energy          -7.322195477045 Eh   ::
         ::.................................................::
         :: total energy               -7.350068980361 Eh   ::
         :: zero point energy           0.028177216526 Eh   ::
         :: G(RRHO) w/o ZPVE           -0.000303713210 Eh   ::
         :: G(RRHO) contrib.            0.027873503316 Eh   ::
         :::::::::::::::::::::::::::::::::::::::::::::::::::::

           -------------------------------------------------
          | TOTAL ENERGY               -7.350068980361 Eh   |
          | TOTAL ENTHALPY             -7.321765087819 Eh   |
          | TOTAL FREE ENERGY          -7.322195477045 Eh   |
          | GRADIENT NORM               0.000143806757 Eh/Î± |
          | HOMO-LUMO GAP              11.949420551302 eV   |
           -------------------------------------------------

 * finished run on 2020/05/12 at 11:44:44.829
