 Gaussian 16, Revision B.01,

 ----------------------------------------------------------------
 #P M062X/cc-pvtz nosymm opt(noeigentest) optcyc=120 freq scf=xqc
 ----------------------------------------------------------------

 -----
 Title
 -----
 Symbolic Z-matrix:
 Charge =  0 Multiplicity = 2

 SCF Done:  E(UM062X) =  -435.385819252     A.U. after   27 cycles
 Optimization completed.
    -- Stationary point found.
 Normal termination of Gaussian 16 at Wed Oct 21 13:09:57 2020.

 -------------------------------------------------------------------
 #P Geom=AllCheck Guess=TCheck SCRF=Check GenChk UM062X/CC-pVTZ Freq
 -------------------------------------------------------------------

 Structure from the checkpoint file:  "input.chk"
 -----
 Title
 -----
 Charge =  0 Multiplicity = 2

 SCF Done:  E(UM062X) =  -435.385819252     A.U. after    1 cycles

  Exact polarizability:  52.957  -0.000  53.674   0.043   0.000 557.029
 Approx polarizability:  67.142   0.000  66.843   0.059  -0.000 795.137

                      1                      2                      3
                      A                      A                      A
 Frequencies --     32.4994                69.6818                86.6452
 Red. masses --     12.3956                12.6235                12.2492
 Frc consts  --      0.0077                 0.0361                 0.0542
 IR Inten    --      3.8445                 0.8980                 0.2352

                      4                      5                      6
                      A                      A                      A
 Frequencies --    145.7668               155.5997               232.2014
 Red. masses --     12.1067                12.1618                12.1098
 Frc consts  --      0.1516                 0.1735                 0.3847
 IR Inten    --      1.9628                 8.1151                 0.0159

                      7                      8                      9
                      A                      A                      A
 Frequencies --    232.3876               322.1545               348.9793
 Red. masses --     12.1739                12.0859                12.0054
 Frc consts  --      0.3874                 0.7390                 0.8614
 IR Inten    --      1.0849                 2.7839                 0.2217

                     10                     11                     12
                      A                      A                      A
 Frequencies --    359.8218               425.2915               460.3781
 Red. masses --     12.3541                12.0453                12.0137
 Frc consts  --      0.9424                 1.2836                 1.5002
 IR Inten    --      1.3406                 1.1290                 0.3008

                     13                     14                     15
                      A                      A                      A
 Frequencies --    482.6248               499.3636               543.7423
 Red. masses --     12.0533                12.0565                12.0587
 Frc consts  --      1.6542                 1.7714                 2.1006
 IR Inten    --      1.0083                 0.3572                 1.2143

                     16                     17                     18
                      A                      A                      A
 Frequencies --    543.8279               580.9139               605.6679
 Red. masses --     12.0816                12.0257                12.0013
 Frc consts  --      2.1052                 2.3910                 2.5939
 IR Inten    --      3.9989                 1.6749                 3.0215

                     19                     20                     21
                      A                      A                      A
 Frequencies --    710.7406              1038.3674              1333.1582
 Red. masses --     12.2868                12.1892                12.0880
 Frc consts  --      3.6569                 7.7433                12.6581
 IR Inten    --      1.7061                 6.5782                36.4839

                     22                     23                     24
                      A                      A                      A
 Frequencies --   1623.7087              1773.6524              2077.6958
 Red. masses --     12.0069                12.0012                12.0039
 Frc consts  --     18.6508                22.2440                30.5306
 IR Inten    --    509.1896              1332.1939               595.0895

                     25                     26                     27
                      A                      A                      A
 Frequencies --   2191.1229              2280.1954              2409.0902
 Red. masses --     12.0425                12.1376                12.4667
 Frc consts  --     34.0643                37.1816                42.6294
 IR Inten    --    344.6223                87.3161               102.6992

 - Thermochemistry -
 -------------------
 Temperature   298.150 Kelvin.  Pressure   1.00000 Atm.
 Atom     1 has atomic number  6 and mass  12.00000

 Molecular mass:   134.00307 amu.
 Principal axes and moments of inertia in atomic units:
                           1         2         3
     Eigenvalues --     0.000077988.056487988.05655
           X            0.00006   1.00000  -0.00000
           Y            0.00000   0.00000   1.00000
           Z            1.00000  -0.00006   0.00000
 This molecule is an asymmetric top.
 Rotational symmetry number  1.
 Rotational temperatures (Kelvin) ************     0.01084     0.01084
 Rotational constants (GHZ):      ************     0.22593     0.22593
 Zero-point vibrational energy     128989.0 (Joules/Mol)
                                   30.82911 (Kcal/Mol)
 Warning -- explicit consideration of  18 degrees of freedom as
           vibrations may cause significant error
 Vibrational temperatures:     46.76   100.26   124.66   209.73   223.87
          (Kelvin)            334.09   334.35   463.51   502.10   517.70
                              611.90   662.38   694.39   718.47   782.32
                              782.45   835.81   871.42  1022.60  1493.98
                             1918.12  2336.15  2551.89  2989.34  3152.54
                             3280.69  3466.14

 Zero-point correction=                           0.049129 (Hartree/Particle)
 Thermal correction to Energy=                    0.059676
 Thermal correction to Enthalpy=                  0.060620
 Thermal correction to Gibbs Free Energy=         0.017938
 Sum of electronic and zero-point Energies=           -435.336690
 Sum of electronic and thermal Energies=              -435.326143
 Sum of electronic and thermal Enthalpies=            -435.325199
 Sum of electronic and thermal Free Energies=         -435.367881

                     E (Thermal)             CV                S
                      KCal/Mol        Cal/Mol-Kelvin    Cal/Mol-Kelvin
 Total                   37.447             35.090             89.832
 Electronic               0.000              0.000              1.377
 Translational            0.889              2.981             40.590
 Rotational               0.889              2.981             16.202
 Vibrational             35.670             29.128             31.662
 Vibration     1          0.594              1.983              5.671
 Vibration     2          0.598              1.969              4.162
 Vibration     3          0.601              1.959              3.734
 Vibration     4          0.617              1.907              2.727
 Vibration     5          0.620              1.896              2.603
 Vibration     6          0.653              1.792              1.862
 Vibration     7          0.653              1.791              1.860
 Vibration     8          0.707              1.631              1.299
 Vibration     9          0.726              1.577              1.171
 Vibration    10          0.734              1.555              1.123
 Vibration    11          0.787              1.415              0.874
 Vibration    12          0.818              1.338              0.765
 Vibration    13          0.839              1.289              0.703
 Vibration    14          0.855              1.251              0.660
 Vibration    15          0.899              1.153              0.557
 Vibration    16          0.899              1.153              0.557
 Vibration    17          0.938              1.073              0.484
 Vibration    18          0.964              1.020              0.440

 Optimization completed.
    -- Stationary point found.
 Normal termination of Gaussian 16 at Wed Oct 21 13:15:03 2020.
 Gaussian 16:  ES64L-G16RevB.01 20-Dec-2017

 -----------------------------------------------
 #P CCSD(T)/aug-cc-pvtz geom=allcheck guess=read
 -----------------------------------------------

 Structure from the checkpoint file:  "input.chk"
 -----
 Title
 -----
 Charge =  0 Multiplicity = 2

                         Standard orientation:
 ---------------------------------------------------------------------
 Center     Atomic      Atomic             Coordinates (Angstroms)
 Number     Number       Type             X           Y           Z
 ---------------------------------------------------------------------
      1          6           0       -0.000142    1.393351    0.000000
      2          6           0       -0.000142    0.066011    0.000000
      3          6           0       -0.000142   -1.157499    0.000000
      4          6           0       -0.000142   -2.504619    0.000000
      5          6           0       -0.000142   -3.715159    0.000000
      6          6           0       -0.000142   -5.084599    0.000000
      7          7           0       -0.000142   -6.236189    0.000000
      8          6           0       -0.000142    2.634411    0.000000
      9          6           0       -0.000142    3.934911    0.000000
     10          6           0       -0.000142    5.206271    0.000000
     11          6           0        0.001442    6.502470    0.000000
 ---------------------------------------------------------------------

 SCF Done:  E(UHF) =  -432.890514839     A.U. after   68 cycles
 E2 =    -0.1567948771D+01 EUMP2 =    -0.43445846360989D+03
 CCSD(T)
 CCSD(T)= -0.43461430023D+03

 The electronic state is 2-A".
 Alpha  occ. eigenvalues --  -15.61850 -11.34781 -11.33990 -11.33834 -11.33374
 Alpha  occ. eigenvalues --  -11.33043 -11.32881 -11.32783 -11.32748 -11.31046
 Alpha  occ. eigenvalues --  -11.28267  -1.26262  -1.18317  -1.15945  -1.12379
 Alpha  occ. eigenvalues --   -1.08378  -1.02028  -0.95980  -0.90554  -0.85683
 Alpha  occ. eigenvalues --   -0.82270  -0.61128  -0.59998  -0.58826  -0.58597
 Alpha  occ. eigenvalues --   -0.56054  -0.54447  -0.51685  -0.49263  -0.48710
 Alpha  occ. eigenvalues --   -0.45988  -0.41525  -0.40065  -0.35061
 Alpha virt. eigenvalues --   -0.04490   0.02010   0.03468   0.03811   0.03835
 Alpha virt. eigenvalues --    0.05904   0.06242   0.06263   0.07105   0.07405
 Alpha virt. eigenvalues --    0.07472   0.08755   0.08772   0.08870   0.10438

  Beta  occ. eigenvalues --  -15.62594 -11.34160 -11.33785 -11.33515 -11.33383
  Beta  occ. eigenvalues --  -11.33141 -11.33018 -11.32935 -11.32285 -11.29322
  Beta  occ. eigenvalues --  -11.28645  -1.27421  -1.17788  -1.15339  -1.11763
  Beta  occ. eigenvalues --   -1.07839  -0.98710  -0.94329  -0.89301  -0.84866
  Beta  occ. eigenvalues --   -0.81911  -0.61200  -0.60051  -0.58532  -0.57331
  Beta  occ. eigenvalues --   -0.56101  -0.52525  -0.51477  -0.46149  -0.45338
  Beta  occ. eigenvalues --   -0.45321  -0.39296  -0.39210
  Beta virt. eigenvalues --   -0.04147  -0.02649   0.03468   0.03826   0.04510
  Beta virt. eigenvalues --    0.05310   0.05958   0.06226   0.06298   0.07131
  Beta virt. eigenvalues --    0.07465   0.07594   0.08772   0.08894   0.08912

 Mulliken charges and spin densities:
               1          2
     1  C   -0.559905   0.074290
     2  C   -0.103301   0.086323
     3  C    0.823305  -0.105515
     4  C   -0.556721   0.271231
     5  C    0.975867  -0.263545
     6  C   -0.411232   0.252628
     7  N   -0.467547  -0.241640
     8  C    1.048159  -0.045352
     9  C   -0.237257   0.097089
    10  C    0.432370  -0.059753
    11  C   -0.943738   0.934243
 Sum of Mulliken charges =  -0.00000   1.00000

 Dipole moment (field-independent basis, Debye):
    X=             -0.0036    Y=             -0.8719    Z=              0.0000  Tot=              0.8719
 Quadrupole moment (field-independent basis, Debye-Ang):
   XX=            -60.2004   YY=           -121.1099   ZZ=            -61.8654
   XY=             -0.0276   XZ=              0.0000   YZ=              0.0000

 4.5018307\CCSD(T)=-434.6143002\S2=1.771826\S2-1=1.566664\S2A=2.104463\
 Normal termination of Gaussian 16 at Thu Oct 22 11:17:58 2020.
