   * xtb version 6.2.2 (9d81278992624c895f80dd42a50cac0aa55982e2) compiled by '@Darwin' on 04/03/2020
          program call               : xtb --input C4N1_55_S_3.input C4N1_55_S_3.xyz --ohess --molden --namespace C4N1_55_S_3 output.out
          number of atoms            :                     5
          number of electrons        :                    21
          charge                     :                     0
          spin                       :                   1.5

   ID    Z sym.   atoms
    1    7 N      1
    2    6 C      2-5

          :  Hamiltonian                  GFN2-xTB          :
 * total energy  :   -10.8476159 Eh     change        0.6970602E-10 Eh
 * total energy  :   -10.8689468 Eh     change       -0.2133092E-01 Eh
 * total energy  :   -10.8927758 Eh     change       -0.2382894E-01 Eh
 * total energy  :   -10.9111217 Eh     change       -0.1834587E-01 Eh
 * total energy  :   -10.9166021 Eh     change       -0.5480439E-02 Eh
 * total energy  :   -10.9113371 Eh     change        0.5265026E-02 Eh
 * total energy  :   -10.9317403 Eh     change       -0.2040318E-01 Eh
 * total energy  :   -10.9470993 Eh     change       -0.1535902E-01 Eh
 * total energy  :   -10.9631362 Eh     change       -0.1603693E-01 Eh
 * total energy  :   -10.9707616 Eh     change       -0.7625401E-02 Eh
 * total energy  :   -10.9824121 Eh     change       -0.7784569E-04 Eh
 * total energy  :   -10.9825685 Eh     change       -0.1563484E-03 Eh
 * total energy  :   -10.9826356 Eh     change       -0.6715943E-04 Eh
 * total energy  :   -10.9826858 Eh     change       -0.5012613E-04 Eh
 * total energy  :   -10.9827080 Eh     change       -0.2226969E-04 Eh
 * total energy  :   -10.9827165 Eh     change       -0.8495789E-05 Eh
 * total energy  :   -10.9827229 Eh     change       -0.6381833E-05 Eh
 * total energy  :   -10.9827265 Eh     change       -0.3586437E-05 Eh
 * total energy  :   -10.9827297 Eh     change       -0.3155598E-05 Eh
   *** GEOMETRY OPTIMIZATION CONVERGED AFTER 39 ITERATIONS ***

 final structure:
================
5
 xtb: 6.2.2 (9d81278992624c895f80dd42a50cac0aa55982e2)
N         0.04974110580385   -1.01553636250254    0.08488740184208
C        -0.46553125929949   -0.15382602137492   -0.93529366030942
C        -0.51205661454428    0.95088139502381    0.04631339914266
C         0.07027551492754    0.03850879000081    1.05293877113590
C         0.85757225311238    0.17997219885283   -0.24884491181123

          :  Hamiltonian                  GFN2-xTB          :
         :: gradient norm              0.000741027353 Eh/a0 ::
         :: HOMO-LUMO gap              4.150233207648 eV    ::
         :: SCC energy               -11.091656034151 Eh    ::
         :: -> dispersion             -0.002597628684 Eh    ::
         :: repulsion energy           0.108926357996 Eh    ::

    * Orbital Energies and Occupations

         #    Occupation            Energy/Eh            Energy/eV
      -------------------------------------------------------------
         1        2.0000           -0.7836742             -21.3249
         2        2.0000           -0.6703926             -18.2423
         3        2.0000           -0.6679513             -18.1759
         4        2.0000           -0.6322703             -17.2050
         5        2.0000           -0.5635266             -15.3343
         6        2.0000           -0.5187488             -14.1159
         7        2.0000           -0.5150534             -14.0153
         8        2.0000           -0.4916612             -13.3788
         9        2.0000           -0.4833635             -13.1530
        10        1.0000           -0.4626376             -12.5890
        11        1.0000           -0.4081820             -11.1072
        12        1.0000           -0.3994625             -10.8699 (HOMO)
        13                         -0.2469442              -6.7197 (LUMO)
        14                         -0.1692584              -4.6058
        15                         -0.1425038              -3.8777
        16                          0.0078674               0.2141
        17                          0.0676210               1.8401
        18                          0.1037790               2.8240
        19                          0.1149467               3.1279
        20                          0.3313187               9.0156
      -------------------------------------------------------------
                  HL-Gap            0.1525183 Eh            4.1502 eV

     #   Z        covCN         q      C6AA      Î±(0)
     1   7 N      2.991    -0.079    22.768     7.087
     2   6 C      3.213    -0.014    27.682     8.562
     3   6 C      3.189    -0.010    27.764     8.595
     4   6 C      3.213    -0.014    27.679     8.561
     5   6 C      3.820     0.116    18.674     6.150

Wiberg/Mayer (AO) data.
largest (>0.10) Wiberg bond orders for each atom
          total WBO             WBO to atom ...

molecular dipole:
Molecule has the following symmetry elements: (sigma)
It seems to be the Cs point group
                 x           y           z       tot (Debye)
 q only:        0.200       0.177      -0.071
   full:        0.518       0.060      -0.145       1.374

 projected vibrational frequencies (cm-1)
eigval :       -0.00    -0.00    -0.00     0.00     0.00     0.00
eigval :      270.29   412.40   551.39   889.37   997.78  1054.70
eigval :     1137.60  1160.58  1407.44

   temp. (K)  partition function   enthalpy   heat capacity  entropy
                                   cal/mol     cal/K/mol   cal/K/mol   J/K/mol
  10.00  VIB   1.00                    0.000      0.000     -0.002
         ROT   133.                   29.809      2.981     12.694
         INT   133.                   29.809      2.981     12.691
         TR   0.290E+25               49.681      4.968     21.419
         TOT                          79.4904     7.9490    34.1107   142.7191

       T/K    H(0)-H(T)+PV         H(T)/Eh          T*S/Eh         G(T)/Eh
   ------------------------------------------------------------------------
    298.15    0.489324E-02    0.228487E-01    0.306845E-01   -0.783574E-02
    120.00    0.158729E-02    0.195428E-01    0.103854E-01    0.915731E-02
    100.00    0.129840E-02    0.192539E-01    0.839146E-02    0.108624E-01
     80.00    0.102427E-02    0.189797E-01    0.646876E-02    0.125110E-01
     60.00    0.762045E-03    0.187175E-01    0.462549E-02    0.140920E-01
     40.00    0.506779E-03    0.184623E-01    0.287679E-02    0.155855E-01
     20.00    0.253352E-03    0.182088E-01    0.126277E-02    0.169461E-01
     10.00    0.126676E-03    0.180822E-01    0.543588E-03    0.175386E-01 (used)
   ------------------------------------------------------------------------

         :::::::::::::::::::::::::::::::::::::::::::::::::::::
         ::                  THERMODYNAMIC                  ::
         :::::::::::::::::::::::::::::::::::::::::::::::::::::
         :: total free energy         -10.965191095686 Eh   ::
         ::.................................................::
         :: total energy              -10.982729659193 Eh   ::
         :: zero point energy           0.017955475836 Eh   ::
         :: G(RRHO) w/o ZPVE           -0.000416912330 Eh   ::
         :: G(RRHO) contrib.            0.017538563506 Eh   ::
         :::::::::::::::::::::::::::::::::::::::::::::::::::::

           -------------------------------------------------
          | TOTAL ENERGY              -10.982729659193 Eh   |
          | TOTAL ENTHALPY            -10.964647507341 Eh   |
          | TOTAL FREE ENERGY         -10.965191095686 Eh   |
          | GRADIENT NORM               0.000740983352 Eh/Î± |
          | HOMO-LUMO GAP               4.150233222684 eV   |
           -------------------------------------------------

 * finished run on 2020/05/12 at 11:44:23.424
