   * xtb version 6.2.2 (9d81278992624c895f80dd42a50cac0aa55982e2) compiled by '@Darwin' on 04/03/2020
          program call               : xtb --input H1C3_0_S_3.input H1C3_0_S_3.xyz --ohess --molden --namespace H1C3_0_S_3 output.out
          number of atoms            :                     4
          number of electrons        :                    13
          charge                     :                     0
          spin                       :                   1.5

   ID    Z sym.   atoms
    1    6 C      1-3
    2    1 H      4

          :  Hamiltonian                  GFN2-xTB          :
 * total energy  :    -6.4255024 Eh     change       -0.1898846E-09 Eh
 * total energy  :    -6.4732718 Eh     change       -0.4776938E-01 Eh
 * total energy  :    -6.4834627 Eh     change       -0.1019094E-01 Eh
 * total energy  :    -6.4910519 Eh     change       -0.7589175E-02 Eh
 * total energy  :    -6.4934775 Eh     change       -0.2425548E-02 Eh
 * total energy  :    -6.4942623 Eh     change       -0.7848031E-03 Eh
 * total energy  :    -6.4945658 Eh     change       -0.3034906E-03 Eh
 * total energy  :    -6.4946960 Eh     change       -0.1302393E-03 Eh
 * total energy  :    -6.4953762 Eh     change       -0.6801969E-03 Eh
 * total energy  :    -6.5006599 Eh     change       -0.5283676E-02 Eh
 * total energy  :    -6.4994172 Eh     change        0.1242662E-02 Eh
 * total energy  :    -6.5020603 Eh     change       -0.2643090E-02 Eh
 * total energy  :    -6.5021118 Eh     change       -0.5154408E-04 Eh
 * total energy  :    -6.5022057 Eh     change       -0.9385128E-04 Eh
 * total energy  :    -6.5022070 Eh     change       -0.1311243E-05 Eh
 * total energy  :    -6.5022074 Eh     change       -0.4202389E-06 Eh
   *** GEOMETRY OPTIMIZATION CONVERGED AFTER 16 ITERATIONS ***

 final structure:
================
4
 xtb: 6.2.2 (9d81278992624c895f80dd42a50cac0aa55982e2)
C        -0.01756841482171    0.30001143085859    0.00593560521509
C        -0.72455327801045   -0.87902942909581   -0.01357847270110
C         0.82223069910704   -0.78838528813665   -0.01732683180451
H        -0.08011000627488    1.36740328637387    0.02496969929051

          :  Hamiltonian                  GFN2-xTB          :
         :: gradient norm              0.000288931571 Eh/a0 ::
         :: HOMO-LUMO gap              0.826393508884 eV    ::
         :: SCC energy                -6.607666698887 Eh    ::
         :: -> dispersion             -0.001252810927 Eh    ::
         :: repulsion energy           0.105459275478 Eh    ::

    * Orbital Energies and Occupations

         #    Occupation            Energy/Eh            Energy/eV
      -------------------------------------------------------------
         1        2.0000           -0.6808903             -18.5280
         2        2.0000           -0.5815791             -15.8256
         3        2.0000           -0.5561137             -15.1326
         4        2.0000           -0.4927468             -13.4083
         5        2.0000           -0.4578068             -12.4576
         6        1.0000           -0.4073264             -11.0839
         7        1.0000           -0.3995616             -10.8726
         8        1.0000           -0.2849645              -7.7543 (HOMO)
         9        0.0000           -0.2545951              -6.9279 (LUMO)
        10                         -0.0566141              -1.5405
        11                          0.1013080               2.7567
        12                          0.2496979               6.7946
        13                          0.6320991              17.2003
      -------------------------------------------------------------
                  HL-Gap            0.0303694 Eh            0.8264 eV

     #   Z        covCN         q      C6AA      Î±(0)
     1   6 C      2.887     0.065    26.547     8.447
     2   6 C      1.953    -0.066    32.877     9.260
     3   6 C      1.953    -0.066    32.877     9.260
     4   1 H      0.927     0.068     2.109     2.271

Wiberg/Mayer (AO) data.
largest (>0.10) Wiberg bond orders for each atom
          total WBO             WBO to atom ...

molecular dipole:
                 x           y           z       tot (Debye)
 q only:       -0.025       0.421       0.008
   full:       -0.046       0.788       0.014       2.007

 projected vibrational frequencies (cm-1)
eigval :       -0.00    -0.00    -0.00    -0.00     0.00     0.00
eigval :     -213.34   809.94   863.12   870.52  1608.78  3158.26

   temp. (K)  partition function   enthalpy   heat capacity  entropy
                                   cal/mol     cal/K/mol   cal/K/mol   J/K/mol
  10.00  VIB   1.00                    0.000      0.000     -0.000
         ROT   17.4                   29.809      2.981      8.656
         INT   17.4                   29.809      2.981      8.656
         TR   0.134E+25               49.681      4.968     19.882
         TOT                          79.4904     7.9490    28.5386   119.4056

       T/K    H(0)-H(T)+PV         H(T)/Eh          T*S/Eh         G(T)/Eh
   ------------------------------------------------------------------------
    298.15    0.397791E-02    0.206327E-01    0.266278E-01   -0.599512E-02
    120.00    0.152058E-02    0.181754E-01    0.923421E-02    0.894117E-02
    100.00    0.126682E-02    0.179216E-01    0.746393E-02    0.104577E-01
     80.00    0.101341E-02    0.176682E-01    0.574503E-02    0.119232E-01
     60.00    0.760056E-03    0.174149E-01    0.409018E-02    0.133247E-01
     40.00    0.506704E-03    0.171615E-01    0.252140E-02    0.146401E-01
     20.00    0.253352E-03    0.169082E-01    0.108514E-02    0.158230E-01
     10.00    0.126676E-03    0.167815E-01    0.454792E-03    0.163267E-01 (used)
   ------------------------------------------------------------------------

         :::::::::::::::::::::::::::::::::::::::::::::::::::::
         ::                  THERMODYNAMIC                  ::
         :::::::::::::::::::::::::::::::::::::::::::::::::::::
         :: total free energy          -6.485880724351 Eh   ::
         ::.................................................::
         :: total energy               -6.502207415959 Eh   ::
         :: zero point energy           0.016654807357 Eh   ::
         :: G(RRHO) w/o ZPVE           -0.000328115748 Eh   ::
         :: G(RRHO) contrib.            0.016326691608 Eh   ::
         :::::::::::::::::::::::::::::::::::::::::::::::::::::

           -------------------------------------------------
          | TOTAL ENERGY               -6.502207415959 Eh   |
          | TOTAL ENTHALPY             -6.485425932587 Eh   |
          | TOTAL FREE ENERGY          -6.485880724351 Eh   |
          | GRADIENT NORM               0.000288924865 Eh/Î± |
          | HOMO-LUMO GAP               0.826393461733 eV   |
           -------------------------------------------------

 * finished run on 2020/05/12 at 11:43:51.301
