   * xtb version 6.2.2 (9d81278992624c895f80dd42a50cac0aa55982e2) compiled by '@Darwin' on 04/03/2020
          program call               : xtb --input H1C3N1_5_S_2.input H1C3N1_5_S_2.xyz --ohess --molden --namespace H1C3N1_5_S_2 output.out
          number of atoms            :                     5
          number of electrons        :                    18
          charge                     :                     0
          spin                       :                   1.0

   ID    Z sym.   atoms
    1    6 C      1-3
    2    7 N      4
    3    1 H      5

          :  Hamiltonian                  GFN2-xTB          :
 * total energy  :    -9.3903430 Eh     change       -0.5736567E-10 Eh
 * total energy  :    -9.4999349 Eh     change       -0.1095919E+00 Eh
 * total energy  :    -9.5090228 Eh     change       -0.9087881E-02 Eh
 * total energy  :    -9.5494274 Eh     change       -0.4040454E-01 Eh
 * total energy  :    -9.5547921 Eh     change       -0.5364754E-02 Eh
 * total energy  :    -9.5662318 Eh     change       -0.1143968E-01 Eh
 * total energy  :    -9.5641862 Eh     change        0.2045562E-02 Eh
 * total energy  :    -9.5651625 Eh     change       -0.9762240E-03 Eh
 * total energy  :    -9.5721911 Eh     change       -0.7028595E-02 Eh
 * total energy  :    -9.5753032 Eh     change       -0.3112139E-02 Eh
 * total energy  :    -9.5779963 Eh     change       -0.1358407E-02 Eh
 * total energy  :    -9.5784565 Eh     change       -0.4602393E-03 Eh
 * total energy  :    -9.5786388 Eh     change       -0.1823253E-03 Eh
 * total energy  :    -9.5786864 Eh     change       -0.4753993E-04 Eh
 * total energy  :    -9.5787102 Eh     change       -0.2376698E-04 Eh
 * total energy  :    -9.5787211 Eh     change       -0.1093731E-04 Eh
 * total energy  :    -9.5787268 Eh     change       -0.5686605E-05 Eh
 * total energy  :    -9.5787312 Eh     change       -0.4430865E-05 Eh
 * total energy  :    -9.5787338 Eh     change       -0.2639520E-05 Eh
   *** GEOMETRY OPTIMIZATION CONVERGED AFTER 20 ITERATIONS ***

 final structure:
================
5
 xtb: 6.2.2 (9d81278992624c895f80dd42a50cac0aa55982e2)
C        -1.37352318100492    0.26679025682705   -0.05277510940998
C        -0.09588707598299    0.31255837076993   -0.14009356503648
C         1.16116815087719   -0.08453989869897   -0.02117969253900
N         2.33665112448543   -0.00021902846668   -0.12226043480597
H        -2.02840901837472   -0.49458870043134    0.33630880179142

          :  Hamiltonian                  GFN2-xTB          :
         :: gradient norm              0.000632775658 Eh/a0 ::
         :: HOMO-LUMO gap              1.051197997967 eV    ::
         :: SCC energy                -9.794051594014 Eh    ::
         :: -> dispersion             -0.002010048081 Eh    ::
         :: repulsion energy           0.215318015568 Eh    ::

    * Orbital Energies and Occupations

         #    Occupation            Energy/Eh            Energy/eV
      -------------------------------------------------------------
         1        2.0000           -0.6668154             -18.1450
         2        2.0000           -0.6550269             -17.8242
         3        2.0000           -0.6075979             -16.5336
         4        2.0000           -0.5408806             -14.7181
         5        2.0000           -0.5181537             -14.0997
         6        2.0000           -0.5119227             -13.9301
         7        2.0000           -0.4619401             -12.5700
         8        1.9998           -0.4490723             -12.2199
         9        1.0002           -0.4327207             -11.7749
        10        1.0000           -0.3354476              -9.1280 (HOMO)
        11                         -0.2968168              -8.0768 (LUMO)
        12                         -0.1768330              -4.8119
        13                         -0.1292619              -3.5174
        14                          0.1572263               4.2783
        15                          0.2539648               6.9107
        16                          0.7838964              21.3309
        17                          1.1529327              31.3729
      -------------------------------------------------------------
                  HL-Gap            0.0386308 Eh            1.0512 eV

     #   Z        covCN         q      C6AA      Î±(0)
     1   6 C      1.908    -0.057    32.645     9.227
     2   6 C      1.964     0.018    30.607     8.934
     3   6 C      1.893     0.114    28.309     8.593
     4   7 N      0.913    -0.172    24.703     7.187
     5   1 H      0.926     0.097     1.813     2.106

Wiberg/Mayer (AO) data.
largest (>0.10) Wiberg bond orders for each atom
          total WBO             WBO to atom ...

molecular dipole:
                 x           y           z       tot (Debye)
 q only:       -0.735      -0.127       0.098
   full:       -1.035      -0.289       0.189       2.773

 projected vibrational frequencies (cm-1)
eigval :       -0.00    -0.00    -0.00     0.00     0.00     0.00
eigval :      193.94   206.13   403.91   530.57   767.56  1012.30
Molecule has the following symmetry elements: (sigma)
It seems to be the Cs point group
eigval :     1793.05  2076.82  3019.09

   temp. (K)  partition function   enthalpy   heat capacity  entropy
                                   cal/mol     cal/K/mol   cal/K/mol   J/K/mol
  10.00  VIB   1.00                    0.000      0.000     -0.010
         ROT   60.4                   29.809      2.981     11.130
         INT   60.4                   29.809      2.981     11.120
         TR   0.217E+25               49.681      4.968     20.838
         TOT                          79.4904     7.9490    31.9581   133.7128

       T/K    H(0)-H(T)+PV         H(T)/Eh          T*S/Eh         G(T)/Eh
   ------------------------------------------------------------------------
    298.15    0.553166E-02    0.283210E-01    0.309207E-01   -0.259970E-02
    120.00    0.172168E-02    0.245111E-01    0.101684E-01    0.143427E-01
    100.00    0.138234E-02    0.241717E-01    0.816469E-02    0.160070E-01
     80.00    0.106637E-02    0.238557E-01    0.625017E-02    0.176056E-01
     60.00    0.775451E-03    0.235648E-01    0.443704E-02    0.191278E-01
     40.00    0.508097E-03    0.232975E-01    0.274167E-02    0.205558E-01
     20.00    0.253353E-03    0.230427E-01    0.119431E-02    0.218484E-01
     10.00    0.126676E-03    0.229161E-01    0.509285E-03    0.224068E-01 (used)
   ------------------------------------------------------------------------

         :::::::::::::::::::::::::::::::::::::::::::::::::::::
         ::                  THERMODYNAMIC                  ::
         :::::::::::::::::::::::::::::::::::::::::::::::::::::
         :: total free energy          -9.556327073200 Eh   ::
         ::.................................................::
         :: total energy               -9.578733845188 Eh   ::
         :: zero point energy           0.022789380956 Eh   ::
         :: G(RRHO) w/o ZPVE           -0.000382608969 Eh   ::
         :: G(RRHO) contrib.            0.022406771987 Eh   ::
         :::::::::::::::::::::::::::::::::::::::::::::::::::::

           -------------------------------------------------
          | TOTAL ENERGY               -9.578733845188 Eh   |
          | TOTAL ENTHALPY             -9.555817788215 Eh   |
          | TOTAL FREE ENERGY          -9.556327073200 Eh   |
          | GRADIENT NORM               0.000633178316 Eh/Î± |
          | HOMO-LUMO GAP               1.051197470127 eV   |
           -------------------------------------------------

 * finished run on 2020/05/12 at 11:44:52.375
