   * xtb version 6.2.2 (9d81278992624c895f80dd42a50cac0aa55982e2) compiled by '@Darwin' on 04/03/2020
          program call               : xtb --input H1C3N1_13_S_0.input H1C3N1_13_S_0.xyz --ohess --molden --namespace H1C3N1_13_S_0 output.out
          number of atoms            :                     5
          number of electrons        :                    18
          charge                     :                     0
          spin                       :                   0.0

   ID    Z sym.   atoms
    1    6 C      1-3
    2    7 N      4
    3    1 H      5

          :  Hamiltonian                  GFN2-xTB          :
 * total energy  :    -9.4630509 Eh     change       -0.1183771E-08 Eh
 * total energy  :    -9.5348494 Eh     change       -0.7179849E-01 Eh
 * total energy  :    -9.5288612 Eh     change        0.5988158E-02 Eh
 * total energy  :    -9.5951027 Eh     change       -0.6624147E-01 Eh
 * total energy  :    -9.5999596 Eh     change       -0.4856867E-02 Eh
 * total energy  :    -9.6102458 Eh     change       -0.1028619E-01 Eh
 * total energy  :    -9.6131417 Eh     change       -0.2895914E-02 Eh
 * total energy  :    -9.6183035 Eh     change       -0.5161864E-02 Eh
 * total energy  :    -9.6204691 Eh     change       -0.2165611E-02 Eh
 * total energy  :    -9.6214967 Eh     change       -0.1027591E-02 Eh
 * total energy  :    -9.6944098 Eh     change       -0.3083812E-03 Eh
 * total energy  :    -9.6946933 Eh     change       -0.2834368E-03 Eh
 * total energy  :    -9.6947091 Eh     change       -0.1582425E-04 Eh
 * total energy  :    -9.6948932 Eh     change       -0.1840697E-03 Eh
 * total energy  :    -9.6949130 Eh     change       -0.1985375E-04 Eh
 * total energy  :    -9.6949307 Eh     change       -0.1766458E-04 Eh
 * total energy  :    -9.6949399 Eh     change       -0.9184102E-05 Eh
 * total energy  :    -9.6949459 Eh     change       -0.6005038E-05 Eh
 * total energy  :    -9.6949478 Eh     change       -0.1923265E-05 Eh
   *** GEOMETRY OPTIMIZATION CONVERGED AFTER 37 ITERATIONS ***

 final structure:
================
5
 xtb: 6.2.2 (9d81278992624c895f80dd42a50cac0aa55982e2)
C         1.08853486858758   -0.63890263784351    0.06925584932856
C         0.05320293867632   -0.03081470917467    0.00787253249611
C        -2.06618568203933    1.22142948959837   -0.14289171069019
N        -1.05735345104336    0.63102456665353   -0.06755782273889
H         1.98180132581881   -1.18273670923370    0.13332215160445

          :  Hamiltonian                  GFN2-xTB          :
         :: gradient norm              0.000973820873 Eh/a0 ::
         :: HOMO-LUMO gap              4.735304793693 eV    ::
         :: SCC energy                -9.948074987011 Eh    ::
         :: -> dispersion             -0.002072707667 Eh    ::
         :: repulsion energy           0.253127700542 Eh    ::

    * Orbital Energies and Occupations

         #    Occupation            Energy/Eh            Energy/eV
      -------------------------------------------------------------
         1        2.0000           -0.6768801             -18.4188
         2        2.0000           -0.6525818             -17.7577
         3        2.0000           -0.6168108             -16.7843
         4        2.0000           -0.5347184             -14.5504
         5        2.0000           -0.5347136             -14.5503
         6        2.0000           -0.5293168             -14.4034
         7        2.0000           -0.4408833             -11.9970
         8        2.0000           -0.4377180             -11.9109
         9        2.0000           -0.4376993             -11.9104 (HOMO)
        10                         -0.2636805              -7.1751 (LUMO)
        11                         -0.2636711              -7.1749
        12                         -0.1178755              -3.2076
        13                         -0.1178659              -3.2073
        14                          0.0206268               0.5613
        15                          0.2818488               7.6695
        16                          0.9510691              25.8799
        17                          1.5401497              41.9096
      -------------------------------------------------------------
                  HL-Gap            0.1740188 Eh            4.7353 eV

     #   Z        covCN         q      C6AA      Î±(0)
     1   6 C      1.910    -0.088    33.528     9.351
     2   6 C      1.898     0.050    29.845     8.823
     3   6 C      0.917    -0.138    39.904    10.575
     4   7 N      1.822     0.076    20.561     6.719
     5   1 H      0.928     0.100     1.786     2.090

Wiberg/Mayer (AO) data.
largest (>0.10) Wiberg bond orders for each atom
          total WBO             WBO to atom ...

molecular dipole:
                 x           y           z       tot (Debye)
 q only:        0.583      -0.346       0.042
   full:        0.965      -0.575       0.069       2.861

 projected vibrational frequencies (cm-1)
eigval :       -0.00    -0.00    -0.00     0.00     0.00     0.00
eigval :      200.45   297.63   385.29   561.86   667.70   980.45
eigval :     2150.81  2277.04  3409.18

   temp. (K)  partition function   enthalpy   heat capacity  entropy
                                   cal/mol     cal/K/mol   cal/K/mol   J/K/mol
  10.00  VIB   1.00                    0.000      0.000     -0.007
         ROT   1.60                   29.809      2.981      3.917
         INT   1.60                   29.809      2.981      3.910
         TR   0.217E+25               49.681      4.968     20.838
         TOT                          79.4904     7.9490    24.7478   103.5448

       T/K    H(0)-H(T)+PV         H(T)/Eh          T*S/Eh         G(T)/Eh
   ------------------------------------------------------------------------
    298.15    0.543273E-02    0.303341E-01    0.272159E-01    0.311812E-02
    120.00    0.167181E-02    0.265731E-01    0.871353E-02    0.178596E-01
    100.00    0.134773E-02    0.262491E-01    0.696624E-02    0.192828E-01
     80.00    0.104723E-02    0.259485E-01    0.530519E-02    0.206434E-01
     60.00    0.768837E-03    0.256702E-01    0.373904E-02    0.219311E-01
     40.00    0.507412E-03    0.254087E-01    0.228100E-02    0.231277E-01
     20.00    0.253353E-03    0.251547E-01    0.964431E-03    0.241902E-01
     10.00    0.126676E-03    0.250280E-01    0.394381E-03    0.246336E-01 (used)
   ------------------------------------------------------------------------

         :::::::::::::::::::::::::::::::::::::::::::::::::::::
         ::                  THERMODYNAMIC                  ::
         :::::::::::::::::::::::::::::::::::::::::::::::::::::
         :: total free energy          -9.670314181529 Eh   ::
         ::.................................................::
         :: total energy               -9.694947797444 Eh   ::
         :: zero point energy           0.024901321386 Eh   ::
         :: G(RRHO) w/o ZPVE           -0.000267705471 Eh   ::
         :: G(RRHO) contrib.            0.024633615915 Eh   ::
         :::::::::::::::::::::::::::::::::::::::::::::::::::::

           -------------------------------------------------
          | TOTAL ENERGY               -9.694947797444 Eh   |
          | TOTAL ENTHALPY             -9.669919800043 Eh   |
          | TOTAL FREE ENERGY          -9.670314181529 Eh   |
          | GRADIENT NORM               0.000973140532 Eh/Î± |
          | HOMO-LUMO GAP               4.735292319346 eV   |
           -------------------------------------------------

 * finished run on 2020/05/12 at 11:44:55.422
