   * xtb version 6.2.2 (9d81278992624c895f80dd42a50cac0aa55982e2) compiled by '@Darwin' on 04/03/2020
          program call               : xtb --input H2C1O2_3_S_0.input H2C1O2_3_S_0.xyz --ohess --molden --namespace H2C1O2_3_S_0 output.out
          number of atoms            :                     5
          number of electrons        :                    18
          charge                     :                     0
          spin                       :                   0.0

   ID    Z sym.   atoms
    1    8 O      1, 3
    2    6 C      2
    3    1 H      4, 5

          :  Hamiltonian                  GFN2-xTB          :
 * total energy  :   -11.0306696 Eh     change       -0.7222631E-09 Eh
 * total energy  :   -11.0701776 Eh     change       -0.3950801E-01 Eh
 * total energy  :   -11.0973182 Eh     change       -0.2714059E-01 Eh
 * total energy  :   -11.1159861 Eh     change       -0.1866795E-01 Eh
 * total energy  :   -11.1211409 Eh     change       -0.5154781E-02 Eh
 * total energy  :   -11.1241074 Eh     change       -0.2966436E-02 Eh
 * total energy  :   -11.1266189 Eh     change       -0.2511588E-02 Eh
 * total energy  :   -11.1278910 Eh     change       -0.1272043E-02 Eh
 * total energy  :   -11.1281410 Eh     change       -0.2499634E-03 Eh
 * total energy  :   -11.1281659 Eh     change       -0.2496367E-04 Eh
 * total energy  :   -11.1281796 Eh     change       -0.1365165E-04 Eh
 * total energy  :   -11.1281829 Eh     change       -0.3357562E-05 Eh
   *** GEOMETRY OPTIMIZATION CONVERGED AFTER 12 ITERATIONS ***

 final structure:
================
5
 xtb: 6.2.2 (9d81278992624c895f80dd42a50cac0aa55982e2)
O         0.71902270203100   -0.45473178757330    0.05456516795244
C        -0.46890663351046   -0.06042541146730    0.00682915266675
O         1.71150791965863    0.36631487917095   -0.04204868131427
H        -0.74397231972947    0.98053761115475   -0.11762065236156
H        -1.21765066844969   -0.83169529128510    0.09827601305663

          :  Hamiltonian                  GFN2-xTB          :
         :: gradient norm              0.000898244170 Eh/a0 ::
         :: HOMO-LUMO gap              2.722091657382 eV    ::
         :: SCC energy               -11.193530257707 Eh    ::
         :: -> dispersion             -0.001196640501 Eh    ::
         :: repulsion energy           0.065347320972 Eh    ::

    * Orbital Energies and Occupations

         #    Occupation            Energy/Eh            Energy/eV
      -------------------------------------------------------------
         1        2.0000           -0.8037432             -21.8710
         2        2.0000           -0.7413639             -20.1735
         3        2.0000           -0.6788904             -18.4735
         4        2.0000           -0.6418871             -17.4666
         5        2.0000           -0.6093814             -16.5821
         6        2.0000           -0.5924171             -16.1205
         7        2.0000           -0.5175386             -14.0829
         8        2.0000           -0.4373133             -11.8999
         9        2.0000           -0.4205714             -11.4443 (HOMO)
        10                         -0.3205364              -8.7222 (LUMO)
        11                         -0.0242941              -0.6611
        12                          0.0811967               2.2095
        13                          0.2473836               6.7317
        14                          0.4166118              11.3366
      -------------------------------------------------------------
                  HL-Gap            0.1000350 Eh            2.7221 eV

     #   Z        covCN         q      C6AA      Î±(0)
     1   8 O      1.829     0.108    13.150     4.897
     2   6 C      2.718     0.054    26.773     8.470
     3   8 O      0.986    -0.365    20.933     6.137
     4   1 H      0.925     0.101     1.772     2.081
     5   1 H      0.926     0.102     1.766     2.078

Wiberg/Mayer (AO) data.
largest (>0.10) Wiberg bond orders for each atom
          total WBO             WBO to atom ...

molecular dipole:
                 x           y           z       tot (Debye)
 q only:       -1.459      -0.324       0.037
   full:       -1.659      -0.352       0.040       4.313

 projected vibrational frequencies (cm-1)
eigval :       -0.00    -0.00    -0.00     0.00     0.00     0.00
eigval :      503.68   682.69   866.88  1050.43  1243.68  1333.16
eigval :     1501.26  3043.78  3112.94

   temp. (K)  partition function   enthalpy   heat capacity  entropy
                                   cal/mol     cal/K/mol   cal/K/mol   J/K/mol
  10.00  VIB   1.00                    0.000      0.000     -0.000
         ROT   48.2                   29.809      2.981     10.681
         INT   48.2                   29.809      2.981     10.681
         TR   0.186E+25               49.681      4.968     20.529
         TOT                          79.4904     7.9490    31.2101   130.5830

       T/K    H(0)-H(T)+PV         H(T)/Eh          T*S/Eh         G(T)/Eh
   ------------------------------------------------------------------------
    298.15    0.423825E-02    0.346256E-01    0.282567E-01    0.636890E-02
    120.00    0.152660E-02    0.319140E-01    0.975214E-02    0.221618E-01
    100.00    0.126858E-02    0.316559E-01    0.789170E-02    0.237642E-01
     80.00    0.101369E-02    0.314010E-01    0.608595E-02    0.253151E-01
     60.00    0.760069E-03    0.311474E-01    0.434565E-02    0.268018E-01
     40.00    0.506704E-03    0.308941E-01    0.269170E-02    0.282024E-01
     20.00    0.253352E-03    0.306407E-01    0.117029E-02    0.294704E-01
     10.00    0.126676E-03    0.305140E-01    0.497365E-03    0.300167E-01 (used)
   ------------------------------------------------------------------------

         :::::::::::::::::::::::::::::::::::::::::::::::::::::
         ::                  THERMODYNAMIC                  ::
         :::::::::::::::::::::::::::::::::::::::::::::::::::::
         :: total free energy         -11.098166267399 Eh   ::
         ::.................................................::
         :: total energy              -11.128182925649 Eh   ::
         :: zero point energy           0.030387346741 Eh   ::
         :: G(RRHO) w/o ZPVE           -0.000370688492 Eh   ::
         :: G(RRHO) contrib.            0.030016658249 Eh   ::
         :::::::::::::::::::::::::::::::::::::::::::::::::::::

           -------------------------------------------------
          | TOTAL ENERGY              -11.128182925649 Eh   |
          | TOTAL ENTHALPY            -11.097668902892 Eh   |
          | TOTAL FREE ENERGY         -11.098166267399 Eh   |
          | GRADIENT NORM               0.000898313104 Eh/Î± |
          | HOMO-LUMO GAP               2.722090825202 eV   |
           -------------------------------------------------

 * finished run on 2020/05/12 at 11:43:52.790
