   * xtb version 6.2.2 (9d81278992624c895f80dd42a50cac0aa55982e2) compiled by '@Darwin' on 04/03/2020
          program call               : xtb --input C4N1_36_S_3.input C4N1_36_S_3.xyz --ohess --molden --namespace C4N1_36_S_3 output.out
          number of atoms            :                     5
          number of electrons        :                    21
          charge                     :                     0
          spin                       :                   1.5

   ID    Z sym.   atoms
    1    6 C      1-4
    2    7 N      5

          :  Hamiltonian                  GFN2-xTB          :
 * total energy  :   -10.8895542 Eh     change       -0.4592025E-09 Eh
 * total energy  :   -10.9183652 Eh     change       -0.2881099E-01 Eh
 * total energy  :   -10.9303949 Eh     change       -0.1202975E-01 Eh
 * total energy  :   -10.8984980 Eh     change        0.3189697E-01 Eh
 * total energy  :   -10.9795900 Eh     change       -0.8109206E-01 Eh
 * total energy  :   -11.0038343 Eh     change       -0.2424431E-01 Eh
 * total energy  :   -11.0095944 Eh     change       -0.5760056E-02 Eh
 * total energy  :   -11.0168617 Eh     change       -0.7267296E-02 Eh
 * total energy  :   -11.0187632 Eh     change       -0.1901491E-02 Eh
 * total energy  :   -11.0202892 Eh     change       -0.1526074E-02 Eh
 * total energy  :   -11.0229371 Eh     change       -0.7493103E-03 Eh
 * total energy  :   -11.0236662 Eh     change       -0.7290417E-03 Eh
 * total energy  :   -11.0240583 Eh     change       -0.3920813E-03 Eh
 * total energy  :   -11.0246183 Eh     change       -0.5600326E-03 Eh
 * total energy  :   -11.0252412 Eh     change       -0.6229462E-03 Eh
 * total energy  :   -11.0258060 Eh     change       -0.5647634E-03 Eh
 * total energy  :   -11.0260156 Eh     change       -0.2096192E-03 Eh
 * total energy  :   -11.0260816 Eh     change       -0.6597051E-04 Eh
 * total energy  :   -11.0260837 Eh     change       -0.2133657E-05 Eh
   *** GEOMETRY OPTIMIZATION CONVERGED AFTER 20 ITERATIONS ***

 final structure:
================
5
 xtb: 6.2.2 (9d81278992624c895f80dd42a50cac0aa55982e2)
C        -1.38440029439085    0.04285696510935   -0.50249641853390
C        -0.53063285007552    0.92117744421583    0.12077220319094
C         0.62739221643765   -0.01448454319785    0.15773143696520
C        -0.54023866825015   -0.92346665968363   -0.01009831446438
N         1.82787859627888   -0.02608320644370    0.23409109284214

          :  Hamiltonian                  GFN2-xTB          :
         :: gradient norm              0.000230122623 Eh/a0 ::
         :: HOMO-LUMO gap              1.740820537256 eV    ::
         :: SCC energy               -11.205358433671 Eh    ::
         :: -> dispersion             -0.002755835870 Eh    ::
         :: repulsion energy           0.179274692628 Eh    ::

    * Orbital Energies and Occupations

         #    Occupation            Energy/Eh            Energy/eV
      -------------------------------------------------------------
         1        2.0000           -0.7381354             -20.0857
         2        2.0000           -0.7003382             -19.0572
         3        2.0000           -0.6303977             -17.1540
         4        2.0000           -0.6203171             -16.8797
         5        2.0000           -0.5674070             -15.4399
         6        2.0000           -0.5668899             -15.4259
         7        2.0000           -0.5040182             -13.7150
         8        2.0000           -0.4915616             -13.3761
         9        2.0000           -0.4682902             -12.7428
        10        1.0000           -0.4484429             -12.2028
        11        1.0000           -0.4259603             -11.5910
        12        1.0000           -0.3833581             -10.4317 (HOMO)
        13                         -0.3193841              -8.6909 (LUMO)
        14                         -0.3111167              -8.4659
        15                         -0.1990522              -5.4165
        16                          0.0696578               1.8955
        17                          0.1002661               2.7284
        18                          0.1997579               5.4357
        19                          0.4237237              11.5301
        20                          0.8225934              22.3839
      -------------------------------------------------------------
                  HL-Gap            0.0639740 Eh            1.7408 eV

     #   Z        covCN         q      C6AA      Î±(0)
     1   6 C      2.221     0.043    29.240     8.755
     2   6 C      2.731    -0.044    29.078     8.828
     3   6 C      3.126     0.198    23.629     7.960
     4   6 C      2.731    -0.044    29.078     8.828
     5   7 N      0.912    -0.153    24.301     7.129

Wiberg/Mayer (AO) data.
largest (>0.10) Wiberg bond orders for each atom
          total WBO             WBO to atom ...

molecular dipole:
                 x           y           z       tot (Debye)
 q only:       -0.316       0.006      -0.059
   full:       -0.490       0.007      -0.066       1.256

 projected vibrational frequencies (cm-1)
eigval :       -0.00    -0.00    -0.00     0.00     0.00     0.00
eigval :      244.99   369.73   498.73   512.73   627.93   835.22
eigval :      957.04  1470.91  1855.72

   temp. (K)  partition function   enthalpy   heat capacity  entropy
                                   cal/mol     cal/K/mol   cal/K/mol   J/K/mol
  10.00  VIB   1.00                    0.000      0.000     -0.004
         ROT   208.                   29.809      2.981     13.586
         INT   208.                   29.809      2.981     13.583
         TR   0.290E+25               49.681      4.968     21.419
         TOT                          79.4904     7.9490    35.0021   146.4487

       T/K    H(0)-H(T)+PV         H(T)/Eh          T*S/Eh         G(T)/Eh
   ------------------------------------------------------------------------
    298.15    0.531449E-02    0.221114E-01    0.317543E-01   -0.964287E-02
    120.00    0.161537E-02    0.184123E-01    0.105931E-01    0.781915E-02
    100.00    0.131250E-02    0.181094E-01    0.855188E-02    0.955755E-02
     80.00    0.102994E-02    0.178269E-01    0.658964E-02    0.112372E-01
     60.00    0.763465E-03    0.175604E-01    0.471254E-02    0.128478E-01
     40.00    0.506873E-03    0.173038E-01    0.293379E-02    0.143700E-01
     20.00    0.253352E-03    0.170503E-01    0.129119E-02    0.157591E-01
     10.00    0.126676E-03    0.169236E-01    0.557794E-03    0.163658E-01 (used)
   ------------------------------------------------------------------------

         :::::::::::::::::::::::::::::::::::::::::::::::::::::
         ::                  THERMODYNAMIC                  ::
         :::::::::::::::::::::::::::::::::::::::::::::::::::::
         :: total free energy         -11.009717909587 Eh   ::
         ::.................................................::
         :: total energy              -11.026083717838 Eh   ::
         :: zero point energy           0.016796925858 Eh   ::
         :: G(RRHO) w/o ZPVE           -0.000431117607 Eh   ::
         :: G(RRHO) contrib.            0.016365808252 Eh   ::
         :::::::::::::::::::::::::::::::::::::::::::::::::::::

           -------------------------------------------------
          | TOTAL ENERGY              -11.026083717838 Eh   |
          | TOTAL ENTHALPY            -11.009160115964 Eh   |
          | TOTAL FREE ENERGY         -11.009717909587 Eh   |
          | GRADIENT NORM               0.000230013683 Eh/Î± |
          | HOMO-LUMO GAP               1.740820449342 eV   |
           -------------------------------------------------

 * finished run on 2020/05/12 at 11:44:14.649
