   * xtb version 6.2.2 (9d81278992624c895f80dd42a50cac0aa55982e2) compiled by '@Darwin' on 04/03/2020
          program call               : xtb --input H2C3_2_S_0.input H2C3_2_S_0.xyz --ohess --molden --namespace H2C3_2_S_0 output.out
          number of atoms            :                     5
          number of electrons        :                    14
          charge                     :                     0
          spin                       :                   0.0

   ID    Z sym.   atoms
    1    6 C      1-3
    2    1 H      4, 5

          :  Hamiltonian                  GFN2-xTB          :
 * total energy  :    -7.1031430 Eh     change        0.1753283E-08 Eh
 * total energy  :    -7.1939048 Eh     change       -0.9076175E-01 Eh
 * total energy  :    -7.1988990 Eh     change       -0.4994199E-02 Eh
 * total energy  :    -7.2147921 Eh     change       -0.1589314E-01 Eh
 * total energy  :    -7.2178579 Eh     change       -0.3065788E-02 Eh
 * total energy  :    -7.2203195 Eh     change       -0.2461599E-02 Eh
 * total energy  :    -7.2215092 Eh     change       -0.1189678E-02 Eh
 * total energy  :    -7.2218929 Eh     change       -0.3837044E-03 Eh
 * total energy  :    -7.2220027 Eh     change       -0.1098326E-03 Eh
 * total energy  :    -7.2221514 Eh     change       -0.1486689E-03 Eh
 * total energy  :    -7.2222564 Eh     change       -0.1050450E-03 Eh
 * total energy  :    -7.2219670 Eh     change        0.2894230E-03 Eh
 * total energy  :    -7.2223022 Eh     change       -0.3351850E-03 Eh
 * total energy  :    -7.2223007 Eh     change        0.1454098E-05 Eh
 * total energy  :    -7.2223063 Eh     change       -0.5524170E-05 Eh
 * total energy  :    -7.2223077 Eh     change       -0.1393811E-05 Eh
   *** GEOMETRY OPTIMIZATION CONVERGED AFTER 16 ITERATIONS ***

 final structure:
================
5
 xtb: 6.2.2 (9d81278992624c895f80dd42a50cac0aa55982e2)
C         0.76111499629150   -0.15179303685431    0.08110721831119
C        -0.54835085434618    0.05403926081685    0.05509247435184
C         1.99769157181868   -0.20000600670668   -0.19364942083881
H        -1.22651835858547   -0.67317722472068   -0.37079212809106
H        -0.98393635517852    0.97093700746483    0.42824285626684

          :  Hamiltonian                  GFN2-xTB          :
         :: gradient norm              0.000551544196 Eh/a0 ::
         :: HOMO-LUMO gap              1.402182250820 eV    ::
         :: SCC energy                -7.381997783304 Eh    ::
         :: -> dispersion             -0.001621964717 Eh    ::
         :: repulsion energy           0.159690114158 Eh    ::

    * Orbital Energies and Occupations

         #    Occupation            Energy/Eh            Energy/eV
      -------------------------------------------------------------
         1        2.0000           -0.6484319             -17.6447
         2        2.0000           -0.6192865             -16.8516
         3        2.0000           -0.5451733             -14.8349
         4        2.0000           -0.5329861             -14.5033
         5        2.0000           -0.4703711             -12.7994
         6        2.0000           -0.4099971             -11.1566
         7        2.0000           -0.4061863             -11.0529 (HOMO)
         8                         -0.3546571              -9.6507 (LUMO)
         9                         -0.1909142              -5.1950
        10                         -0.1536762              -4.1817
        11                          0.1050873               2.8596
        12                          0.2691586               7.3242
        13                          0.3484879               9.4828
        14                          1.0262958              27.9269
      -------------------------------------------------------------
                  HL-Gap            0.0515291 Eh            1.4022 eV

     #   Z        covCN         q      C6AA      Î±(0)
     1   6 C      1.961     0.017    30.639     8.939
     2   6 C      2.833    -0.014    28.348     8.725
     3   6 C      0.982    -0.164    41.340    10.800
     4   1 H      0.925     0.081     1.972     2.196
     5   1 H      0.925     0.081     1.971     2.196

Wiberg/Mayer (AO) data.
largest (>0.10) Wiberg bond orders for each atom
          total WBO             WBO to atom ...

molecular dipole:
                 x           y           z       tot (Debye)
 q only:       -0.919       0.101       0.070
   full:       -1.494       0.130       0.186       3.841

 projected vibrational frequencies (cm-1)
eigval :       -0.00    -0.00    -0.00    -0.00     0.00     0.00
eigval :      107.41   354.53   894.30   960.71  1202.92  1403.26
eigval :     1978.52  3041.50  3058.57

   temp. (K)  partition function   enthalpy   heat capacity  entropy
                                   cal/mol     cal/K/mol   cal/K/mol   J/K/mol
  10.00  VIB   1.00                    0.000      0.000     -0.027
         ROT   31.2                   29.809      2.981      9.819
         INT   31.2                   29.809      2.981      9.791
         TR   0.139E+25               49.681      4.968     19.962
         TOT                          79.4905     7.9491    29.7537   124.4894

       T/K    H(0)-H(T)+PV         H(T)/Eh          T*S/Eh         G(T)/Eh
   ------------------------------------------------------------------------
    298.15    0.497630E-02    0.345964E-01    0.292254E-01    0.537101E-02
    120.00    0.173006E-02    0.313501E-01    0.981164E-02    0.215385E-01
    100.00    0.140932E-02    0.310294E-01    0.788508E-02    0.231443E-01
     80.00    0.109910E-02    0.307192E-01    0.603213E-02    0.246871E-01
     60.00    0.800702E-03    0.304208E-01    0.426730E-02    0.261535E-01
     40.00    0.517206E-03    0.301373E-01    0.261542E-02    0.275219E-01
     20.00    0.253568E-03    0.298737E-01    0.112509E-02    0.287486E-01
     10.00    0.126676E-03    0.297468E-01    0.474155E-03    0.292726E-01 (used)
   ------------------------------------------------------------------------

         :::::::::::::::::::::::::::::::::::::::::::::::::::::
         ::                  THERMODYNAMIC                  ::
         :::::::::::::::::::::::::::::::::::::::::::::::::::::
         :: total free energy          -7.193035048342 Eh   ::
         ::.................................................::
         :: total energy               -7.222307651439 Eh   ::
         :: zero point energy           0.029620082142 Eh   ::
         :: G(RRHO) w/o ZPVE           -0.000347479045 Eh   ::
         :: G(RRHO) contrib.            0.029272603096 Eh   ::
         :::::::::::::::::::::::::::::::::::::::::::::::::::::

           -------------------------------------------------
          | TOTAL ENERGY               -7.222307651439 Eh   |
          | TOTAL ENTHALPY             -7.192560893186 Eh   |
          | TOTAL FREE ENERGY          -7.193035048342 Eh   |
          | GRADIENT NORM               0.000551534684 Eh/Î± |
          | HOMO-LUMO GAP               1.402179496510 eV   |
           -------------------------------------------------

 * finished run on 2020/05/12 at 11:44:26.354
