 Gaussian 16, Revision B.01,
 Gaussian 16:  ES64L-G16RevB.01 20-Dec-2017

 ------------------------
 #P ROCCSD(T)/aug-cc-pvtz
 ------------------------

 -----
 Title
 -----
 Symbolic Z-matrix:
 Charge =  1 Multiplicity = 4

                         Standard orientation:
 ---------------------------------------------------------------------
 Center     Atomic      Atomic             Coordinates (Angstroms)
 Number     Number       Type             X           Y           Z
 ---------------------------------------------------------------------
      1          8           0        0.000000    0.000000    0.000000
 ---------------------------------------------------------------------

 SCF Done:  E(ROHF) =  -74.3662527328     A.U. after   11 cycles
 E2 =    -0.1025615986D+00 EUMP2 =    -0.74468814331402D+02
 CCSD(T)
 CCSD(T)= -0.74485604357D+02

 The electronic state is 4-A1G.
 Alpha  occ. eigenvalues --  -21.41252  -2.05924  -1.32630  -1.32630  -1.32630
 Alpha virt. eigenvalues --   -0.12768  -0.07748  -0.07748  -0.07748   0.28305
 Alpha virt. eigenvalues --    0.28305   0.28305   0.28305   0.28305   0.46771
 Alpha virt. eigenvalues --    0.46771   0.46771   0.80441   1.55987   1.55987

 Mulliken charges and spin densities:
               1          2
     1  O    1.000000   3.000000
 Sum of Mulliken charges =   1.00000   3.00000

 Dipole moment (field-independent basis, Debye):
    X=              0.0000    Y=              0.0000    Z=              0.0000  Tot=              0.0000
 Quadrupole moment (field-independent basis, Debye-Ang):
   XX=             -3.3020   YY=             -3.3020   ZZ=             -3.3020
   XY=             -0.0000   XZ=             -0.0000   YZ=             -0.0000

 Normal termination of Gaussian 16 at Mon Oct  5 21:38:29 2020.
