   * xtb version 6.2.2 (9d81278992624c895f80dd42a50cac0aa55982e2) compiled by '@Darwin' on 04/03/2020
          program call               : xtb --input C5_7_S_0.input C5_7_S_0.xyz --ohess --molden --namespace C5_7_S_0 output.out
          number of atoms            :                     5
          number of electrons        :                    20
          charge                     :                     0
          spin                       :                   0.0

   ID    Z sym.   atoms
    1    6 C      1-5

          :  Hamiltonian                  GFN2-xTB          :
 * total energy  :   -10.1129300 Eh     change        0.6297185E-11 Eh
 * total energy  :   -10.1743665 Eh     change       -0.6143646E-01 Eh
 * total energy  :   -10.1853377 Eh     change       -0.1097119E-01 Eh
 * total energy  :   -10.2284511 Eh     change       -0.4311342E-01 Eh
 * total energy  :   -10.2249475 Eh     change        0.3503602E-02 Eh
 * total energy  :   -10.2447890 Eh     change       -0.1984157E-01 Eh
 * total energy  :   -10.2459286 Eh     change       -0.1139564E-02 Eh
 * total energy  :   -10.2464596 Eh     change       -0.5309648E-03 Eh
 * total energy  :   -10.2465889 Eh     change       -0.1293159E-03 Eh
 * total energy  :   -10.2465369 Eh     change        0.5198690E-04 Eh
 * total energy  :   -10.2466149 Eh     change       -0.7800589E-04 Eh
 * total energy  :   -10.2466161 Eh     change       -0.1208913E-05 Eh
   *** GEOMETRY OPTIMIZATION CONVERGED AFTER 12 ITERATIONS ***

 final structure:
================
5
 xtb: 6.2.2 (9d81278992624c895f80dd42a50cac0aa55982e2)
C        -0.81415971263498    0.53347306472106   -0.34167501837851
C         0.25017982197283    1.29745304491534    0.22663722243449
C         0.80830646956789    0.06877677743261   -0.00669238917445
C        -0.70639718840751   -0.66280827795977    0.35443695674212
C         0.46207060950177   -1.23689460910924   -0.23270677162366

          :  Hamiltonian                  GFN2-xTB          :
         :: gradient norm              0.000180064999 Eh/a0 ::
         :: HOMO-LUMO gap              1.505886623567 eV    ::
         :: SCC energy               -10.417470622944 Eh    ::
         :: -> dispersion             -0.002777112831 Eh    ::
         :: repulsion energy           0.170854468624 Eh    ::

    * Orbital Energies and Occupations

         #    Occupation            Energy/Eh            Energy/eV
      -------------------------------------------------------------
         1        2.0000           -0.7519882             -20.4626
         2        2.0000           -0.6842827             -18.6203
         3        2.0000           -0.6435360             -17.5115
         4        2.0000           -0.5825440             -15.8518
         5        2.0000           -0.5621375             -15.2965
         6        2.0000           -0.5531603             -15.0523
         7        2.0000           -0.5012037             -13.6384
         8        2.0000           -0.4637018             -12.6180
         9        2.0000           -0.4517625             -12.2931
        10        2.0000           -0.4329988             -11.7825 (HOMO)
        11                         -0.3776585             -10.2766 (LUMO)
        12                         -0.3207059              -8.7269
        13                         -0.3121929              -8.4952
        14                         -0.2455734              -6.6824
        15                         -0.2228101              -6.0630
        16                          0.0882188               2.4006
        17                          0.1519189               4.1339
        18                          0.3111191               8.4660
        19                          0.3183463               8.6626
        20                          0.6097869              16.5931
      -------------------------------------------------------------
                  HL-Gap            0.0553403 Eh            1.5059 eV

     #   Z        covCN         q      C6AA      Î±(0)
     1   6 C      3.033     0.016    27.630     8.622
     2   6 C      2.121    -0.071    32.731     9.246
     3   6 C      3.787     0.111    18.784     6.173
     4   6 C      3.033     0.016    27.629     8.622
     5   6 C      2.121    -0.071    32.733     9.246

Wiberg/Mayer (AO) data.
largest (>0.10) Wiberg bond orders for each atom
          total WBO             WBO to atom ...

molecular dipole:
                 x           y           z       tot (Debye)
 q only:        0.028       0.002      -0.000
   full:        0.231       0.020      -0.002       0.589

 projected vibrational frequencies (cm-1)
eigval :       -0.00    -0.00    -0.00     0.00     0.00     0.00
eigval :       46.70   501.46   538.24   660.30   884.56   931.00
eigval :     1116.83  1313.17  1521.10

   temp. (K)  partition function   enthalpy   heat capacity  entropy
                                   cal/mol     cal/K/mol   cal/K/mol   J/K/mol
  10.00  VIB   1.00                    0.162      0.109      0.139
         ROT   77.4                   29.809      2.981     11.624
         INT   77.5                   29.970      3.090     11.763
         TR   0.277E+25               49.681      4.968     21.322
         TOT                          79.6519     8.0577    33.0851   138.4281

       T/K    H(0)-H(T)+PV         H(T)/Eh          T*S/Eh         G(T)/Eh
   ------------------------------------------------------------------------
    298.15    0.531238E-02    0.224290E-01    0.313870E-01   -0.895793E-02
    120.00    0.181437E-02    0.189310E-01    0.106438E-01    0.828718E-02
    100.00    0.149188E-02    0.186085E-01    0.859144E-02    0.100171E-01
     80.00    0.117555E-02    0.182922E-01    0.660552E-02    0.116867E-01
     60.00    0.863157E-03    0.179798E-01    0.469784E-02    0.132820E-01
     40.00    0.555465E-03    0.176721E-01    0.289294E-02    0.147792E-01
     20.00    0.261015E-03    0.173777E-01    0.124654E-02    0.161311E-01
     10.00    0.126933E-03    0.172436E-01    0.527245E-03    0.167163E-01 (used)
   ------------------------------------------------------------------------

         :::::::::::::::::::::::::::::::::::::::::::::::::::::
         ::                  THERMODYNAMIC                  ::
         :::::::::::::::::::::::::::::::::::::::::::::::::::::
         :: total free energy         -10.229899786795 Eh   ::
         ::.................................................::
         :: total energy              -10.246616128992 Eh   ::
         :: zero point energy           0.017116653587 Eh   ::
         :: G(RRHO) w/o ZPVE           -0.000400311390 Eh   ::
         :: G(RRHO) contrib.            0.016716342197 Eh   ::
         :::::::::::::::::::::::::::::::::::::::::::::::::::::

           -------------------------------------------------
          | TOTAL ENERGY              -10.246616128992 Eh   |
          | TOTAL ENTHALPY            -10.229372541978 Eh   |
          | TOTAL FREE ENERGY         -10.229899786795 Eh   |
          | GRADIENT NORM               0.000180282113 Eh/Î± |
          | HOMO-LUMO GAP               1.505885578695 eV   |
           -------------------------------------------------

 * finished run on 2020/05/12 at 11:44:34.380
