   * xtb version 6.2.2 (9d81278992624c895f80dd42a50cac0aa55982e2) compiled by '@Darwin' on 04/03/2020
          program call               : xtb --input H1C3N1_33_S_2.input H1C3N1_33_S_2.xyz --ohess --molden --namespace H1C3N1_33_S_2 output.out
          number of atoms            :                     5
          number of electrons        :                    18
          charge                     :                     0
          spin                       :                   1.0

   ID    Z sym.   atoms
    1    6 C      1-3
    2    7 N      4
    3    1 H      5

          :  Hamiltonian                  GFN2-xTB          :
 * total energy  :    -9.4086515 Eh     change       -0.3943352E-09 Eh
 * total energy  :    -9.4206311 Eh     change       -0.1197958E-01 Eh
 * total energy  :    -9.4387004 Eh     change       -0.1806935E-01 Eh
 * total energy  :    -9.4410696 Eh     change       -0.2369183E-02 Eh
 * total energy  :    -9.4436752 Eh     change       -0.2605658E-02 Eh
 * total energy  :    -9.4442195 Eh     change       -0.5442425E-03 Eh
 * total energy  :    -9.4446083 Eh     change       -0.3888346E-03 Eh
 * total energy  :    -9.4450322 Eh     change       -0.4238589E-03 Eh
 * total energy  :    -9.4461779 Eh     change       -0.1145673E-02 Eh
 * total energy  :    -9.4610032 Eh     change       -0.1482539E-01 Eh
 * total energy  :    -9.4926077 Eh     change       -0.1023538E-02 Eh
 * total energy  :    -9.4930599 Eh     change       -0.4522019E-03 Eh
 * total energy  :    -9.4936201 Eh     change       -0.5602133E-03 Eh
 * total energy  :    -9.4938740 Eh     change       -0.2539011E-03 Eh
 * total energy  :    -9.4941002 Eh     change       -0.2261827E-03 Eh
 * total energy  :    -9.4942565 Eh     change       -0.1562631E-03 Eh
 * total energy  :    -9.4943333 Eh     change       -0.7685982E-04 Eh
 * total energy  :    -9.4943467 Eh     change       -0.1336104E-04 Eh
 * total energy  :    -9.4943472 Eh     change       -0.5109766E-06 Eh
   *** GEOMETRY OPTIMIZATION CONVERGED AFTER 22 ITERATIONS ***

 final structure:
================
5
 xtb: 6.2.2 (9d81278992624c895f80dd42a50cac0aa55982e2)
C        -0.62930475435517    0.58410442714202    0.47945607088158
C        -0.99884899810651   -0.76363552419556    0.60583629648539
C        -0.28192577583635   -0.72653444002628   -0.59983257175575
N         0.46936235295738    0.43475053783716   -0.37681754837618
H         1.44071717534065    0.47131499924266   -0.10864224723504

          :  Hamiltonian                  GFN2-xTB          :
         :: gradient norm              0.000186299793 Eh/a0 ::
         :: HOMO-LUMO gap              2.381436341734 eV    ::
         :: SCC energy                -9.611125688965 Eh    ::
         :: -> dispersion             -0.002080270900 Eh    ::
         :: repulsion energy           0.116778472467 Eh    ::

    * Orbital Energies and Occupations

         #    Occupation            Energy/Eh            Energy/eV
      -------------------------------------------------------------
         1        2.0000           -0.7230025             -19.6739
         2        2.0000           -0.6416353             -17.4598
         3        2.0000           -0.6072383             -16.5238
         4        2.0000           -0.5908187             -16.0770
         5        2.0000           -0.5275146             -14.3544
         6        2.0000           -0.5227510             -14.2248
         7        2.0000           -0.4488105             -12.2128
         8        2.0000           -0.4269011             -11.6166
         9        1.0000           -0.3714617             -10.1080
        10        1.0000           -0.3648622              -9.9284 (HOMO)
        11                         -0.2773460              -7.5470 (LUMO)
        12                         -0.2367849              -6.4432
        13                          0.0320132               0.8711
        14                          0.0914856               2.4895
        15                          0.1704227               4.6374
        16                          0.2445421               6.6543
        17                          0.4766183              12.9694
      -------------------------------------------------------------
                  HL-Gap            0.0875162 Eh            2.3814 eV

     #   Z        covCN         q      C6AA      Î±(0)
Molecule has the following symmetry elements: (sigma)
It seems to be the Cs point group
     1   6 C      2.793    -0.010    28.251     8.707
     2   6 C      2.099    -0.071    32.808     9.255
     3   6 C      2.793    -0.010    28.252     8.707
     4   7 N      2.818    -0.088    22.957     7.116
     5   1 H      0.860     0.180     1.216     1.728

Wiberg/Mayer (AO) data.
largest (>0.10) Wiberg bond orders for each atom
          total WBO             WBO to atom ...

molecular dipole:
                 x           y           z       tot (Debye)
 q only:        0.563       0.193      -0.053
   full:        0.947       0.336      -0.103       2.567

 projected vibrational frequencies (cm-1)
eigval :       -0.00    -0.00    -0.00     0.00     0.00     0.00
eigval :      470.56   618.42   801.00   814.55   914.39   987.56
eigval :     1240.65  1403.29  3414.32

   temp. (K)  partition function   enthalpy   heat capacity  entropy
                                   cal/mol     cal/K/mol   cal/K/mol   J/K/mol
  10.00  VIB   1.00                    0.000      0.000     -0.000
         ROT   86.1                   29.809      2.981     11.836
         INT   86.1                   29.809      2.981     11.835
         TR   0.217E+25               49.681      4.968     20.838
         TOT                          79.4904     7.9490    32.6733   136.7053

       T/K    H(0)-H(T)+PV         H(T)/Eh          T*S/Eh         G(T)/Eh
   ------------------------------------------------------------------------
    298.15    0.443755E-02    0.287336E-01    0.292173E-01   -0.483729E-03
    120.00    0.153001E-02    0.258261E-01    0.100360E-01    0.157900E-01
    100.00    0.126969E-02    0.255657E-01    0.812618E-02    0.174396E-01
     80.00    0.101391E-02    0.253100E-01    0.627276E-02    0.190372E-01
     60.00    0.760084E-03    0.250561E-01    0.448559E-02    0.205705E-01
     40.00    0.506704E-03    0.248028E-01    0.278498E-02    0.220178E-01
     20.00    0.253352E-03    0.245494E-01    0.121693E-02    0.233325E-01
     10.00    0.126676E-03    0.244227E-01    0.520683E-03    0.239020E-01 (used)
   ------------------------------------------------------------------------

         :::::::::::::::::::::::::::::::::::::::::::::::::::::
         ::                  THERMODYNAMIC                  ::
         :::::::::::::::::::::::::::::::::::::::::::::::::::::
         :: total free energy          -9.470445154931 Eh   ::
         ::.................................................::
         :: total energy               -9.494347197599 Eh   ::
         :: zero point energy           0.024296049531 Eh   ::
         :: G(RRHO) w/o ZPVE           -0.000394006864 Eh   ::
         :: G(RRHO) contrib.            0.023902042667 Eh   ::
         :::::::::::::::::::::::::::::::::::::::::::::::::::::

           -------------------------------------------------
          | TOTAL ENERGY               -9.494347197599 Eh   |
          | TOTAL ENTHALPY             -9.469924472052 Eh   |
          | TOTAL FREE ENERGY          -9.470445154931 Eh   |
          | GRADIENT NORM               0.000186401830 Eh/Î± |
          | HOMO-LUMO GAP               2.381436329472 eV   |
           -------------------------------------------------

 * finished run on 2020/05/12 at 11:45:03.350
