   * xtb version 6.2.2 (9d81278992624c895f80dd42a50cac0aa55982e2) compiled by '@Darwin' on 04/03/2020
          program call               : xtb --input H1C3N1_19_S_2.input H1C3N1_19_S_2.xyz --ohess --molden --namespace H1C3N1_19_S_2 output.out
          number of atoms            :                     5
          number of electrons        :                    18
          charge                     :                     0
          spin                       :                   1.0

   ID    Z sym.   atoms
    1    6 C      1, 3, 4
    2    7 N      2
    3    1 H      5

          :  Hamiltonian                  GFN2-xTB          :
 * total energy  :    -9.4018897 Eh     change       -0.6025882E-09 Eh
 * total energy  :    -9.4302690 Eh     change       -0.2837933E-01 Eh
 * total energy  :    -9.4578844 Eh     change       -0.2761535E-01 Eh
 * total energy  :    -9.4726906 Eh     change       -0.1480620E-01 Eh
 * total energy  :    -9.4786897 Eh     change       -0.5999101E-02 Eh
 * total energy  :    -9.4839653 Eh     change       -0.5275633E-02 Eh
 * total energy  :    -9.4866336 Eh     change       -0.2668351E-02 Eh
 * total energy  :    -9.4872519 Eh     change       -0.6182990E-03 Eh
 * total energy  :    -9.4873587 Eh     change       -0.1067416E-03 Eh
 * total energy  :    -9.4873753 Eh     change       -0.1666979E-04 Eh
 * total energy  :    -9.4874044 Eh     change       -0.2903669E-04 Eh
 * total energy  :    -9.4874063 Eh     change       -0.1874319E-05 Eh
   *** GEOMETRY OPTIMIZATION CONVERGED AFTER 12 ITERATIONS ***

 final structure:
================
5
 xtb: 6.2.2 (9d81278992624c895f80dd42a50cac0aa55982e2)
C         1.72660143894865   -0.64118120207211   -0.05579360088633
N         0.62746847612820    0.01638917789154    0.01907530841802
C        -0.73036670742878    0.03739438234145    0.01164494599457
C        -0.11126614288559    1.27164802519744    0.03400821541603
H        -1.51243806476248   -0.68425038335833   -0.00893486894229

          :  Hamiltonian                  GFN2-xTB          :
         :: gradient norm              0.000523803561 Eh/a0 ::
         :: HOMO-LUMO gap              0.635283763931 eV    ::
         :: SCC energy                -9.615044898600 Eh    ::
         :: -> dispersion             -0.002216405401 Eh    ::
         :: repulsion energy           0.127638560849 Eh    ::

    * Orbital Energies and Occupations

         #    Occupation            Energy/Eh            Energy/eV
      -------------------------------------------------------------
         1        2.0000           -0.7430538             -20.2195
         2        2.0000           -0.6807572             -18.5243
         3        2.0000           -0.6316137             -17.1871
         4        2.0000           -0.5851227             -15.9220
         5        2.0000           -0.5818649             -15.8334
         6        2.0000           -0.5298130             -14.4169
         7        2.0000           -0.4550698             -12.3831
         8        2.0000           -0.4495158             -12.2319
         9        1.0000           -0.4202441             -11.4354
        10        1.0000           -0.3202136              -8.7135 (HOMO)
        11        0.0000           -0.2968665              -8.0781 (LUMO)
        12                         -0.2476402              -6.7386
        13                         -0.0852993              -2.3211
        14                          0.0165037               0.4491
        15                          0.0733215               1.9952
        16                          0.4879323              13.2773
        17                          0.6407621              17.4360
      -------------------------------------------------------------
                  HL-Gap            0.0233471 Eh            0.6353 eV

     #   Z        covCN         q      C6AA      Î±(0)
     1   6 C      0.912    -0.206    42.300    10.885
     2   7 N      2.727     0.157    18.597     6.405
     3   6 C      2.819     0.080    26.199     8.387
     4   6 C      1.888    -0.119    34.452     9.480
Molecule has the following symmetry elements: (sigma)
It seems to be the Cs point group
     5   1 H      0.927     0.087     1.903     2.157

Wiberg/Mayer (AO) data.
largest (>0.10) Wiberg bond orders for each atom
          total WBO             WBO to atom ...

molecular dipole:
                 x           y           z       tot (Debye)
 q only:       -0.820      -0.140       0.020
   full:       -1.300      -0.529       0.037       3.569

 projected vibrational frequencies (cm-1)
eigval :       -0.00    -0.00    -0.00    -0.00     0.00     0.00
eigval :       19.05   375.08   573.71   672.78   837.36  1011.08
eigval :     1426.19  1572.03  3209.20

   temp. (K)  partition function   enthalpy   heat capacity  entropy
                                   cal/mol     cal/K/mol   cal/K/mol   J/K/mol
  10.00  VIB   1.07                    3.758      1.101      1.097
         ROT   107.                   29.809      2.981     12.259
         INT   114.                   33.567      4.082     13.356
         TR   0.217E+25               49.681      4.968     20.838
         TOT                          83.2486     9.0499    34.1936   143.0661

       T/K    H(0)-H(T)+PV         H(T)/Eh          T*S/Eh         G(T)/Eh
   ------------------------------------------------------------------------
    298.15    0.542575E-02    0.275160E-01    0.317364E-01   -0.422046E-02
    120.00    0.188150E-02    0.239717E-01    0.108230E-01    0.131487E-01
    100.00    0.155072E-02    0.236410E-01    0.874582E-02    0.148951E-01
     80.00    0.122796E-02    0.233182E-01    0.673599E-02    0.165822E-01
     60.00    0.910187E-03    0.230004E-01    0.480393E-02    0.181965E-01
     40.00    0.594909E-03    0.226851E-01    0.297088E-02    0.197143E-01
     20.00    0.282912E-03    0.223731E-01    0.128754E-02    0.210856E-01
     10.00    0.132665E-03    0.222229E-01    0.544910E-03    0.216780E-01 (used)
   ------------------------------------------------------------------------

         :::::::::::::::::::::::::::::::::::::::::::::::::::::
         ::                  THERMODYNAMIC                  ::
         :::::::::::::::::::::::::::::::::::::::::::::::::::::
         :: total free energy          -9.465728270453 Eh   ::
         ::.................................................::
         :: total energy               -9.487406262025 Eh   ::
         :: zero point energy           0.022090236448 Eh   ::
         :: G(RRHO) w/o ZPVE           -0.000412244875 Eh   ::
         :: G(RRHO) contrib.            0.021677991572 Eh   ::
         :::::::::::::::::::::::::::::::::::::::::::::::::::::

           -------------------------------------------------
          | TOTAL ENERGY               -9.487406262025 Eh   |
          | TOTAL ENTHALPY             -9.465183360487 Eh   |
          | TOTAL FREE ENERGY          -9.465728270453 Eh   |
          | GRADIENT NORM               0.000523953149 Eh/Î± |
          | HOMO-LUMO GAP               0.635306103694 eV   |
           -------------------------------------------------

 * finished run on 2020/05/12 at 11:44:58.095
