   * xtb version 6.2.2 (9d81278992624c895f80dd42a50cac0aa55982e2) compiled by '@Darwin' on 04/03/2020
          program call               : xtb --input H2C2O1_1_S_0.input H2C2O1_1_S_0.xyz --ohess --molden --namespace H2C2O1_1_S_0 output.out
          number of atoms            :                     5
          number of electrons        :                    16
          charge                     :                     0
          spin                       :                   0.0

   ID    Z sym.   atoms
    1    6 C      1, 2
    2    8 O      3
    3    1 H      4, 5

          :  Hamiltonian                  GFN2-xTB          :
 * total energy  :    -9.0995777 Eh     change        0.4499370E-09 Eh
 * total energy  :    -9.1549881 Eh     change       -0.5541046E-01 Eh
 * total energy  :    -9.1594363 Eh     change       -0.4448203E-02 Eh
 * total energy  :    -9.1758992 Eh     change       -0.1646284E-01 Eh
 * total energy  :    -9.1800915 Eh     change       -0.4192307E-02 Eh
 * total energy  :    -9.1834351 Eh     change       -0.3343608E-02 Eh
 * total energy  :    -9.1942089 Eh     change       -0.1077377E-01 Eh
 * total energy  :    -9.1948336 Eh     change       -0.6247664E-03 Eh
 * total energy  :    -9.2073566 Eh     change       -0.1252303E-01 Eh
 * total energy  :    -9.2273507 Eh     change       -0.1999402E-01 Eh
 * total energy  :    -9.3171969 Eh     change       -0.8589450E-03 Eh
 * total energy  :    -9.3174399 Eh     change       -0.2429889E-03 Eh
 * total energy  :    -9.3174417 Eh     change       -0.1877243E-05 Eh
 * total energy  :    -9.3179267 Eh     change       -0.4849782E-03 Eh
 * total energy  :    -9.3152818 Eh     change        0.2644920E-02 Eh
 * total energy  :    -9.3181397 Eh     change       -0.2857876E-02 Eh
 * total energy  :    -9.3181698 Eh     change       -0.3010218E-04 Eh
 * total energy  :    -9.3181843 Eh     change       -0.1454045E-04 Eh
 * total energy  :    -9.3181863 Eh     change       -0.1973712E-05 Eh
   *** GEOMETRY OPTIMIZATION CONVERGED AFTER 29 ITERATIONS ***

 final structure:
================
5
 xtb: 6.2.2 (9d81278992624c895f80dd42a50cac0aa55982e2)
C        -0.55309776709215   -0.52029834719472    0.07178474872192
C         0.38145025721557    0.35866646948600   -0.04926890706703
O        -1.39390721037419   -1.31448666279855    0.18116274861335
H         0.16520644160891    1.40722466456185    0.00846806484202
H         1.40034927864186    0.06889387594542   -0.21214565511027

          :  Hamiltonian                  GFN2-xTB          :
         :: gradient norm              0.000741319800 Eh/a0 ::
         :: HOMO-LUMO gap              3.689182488942 eV    ::
         :: SCC energy                -9.473930093577 Eh    ::
         :: -> dispersion             -0.001369860307 Eh    ::
         :: repulsion energy           0.155743779586 Eh    ::

    * Orbital Energies and Occupations

         #    Occupation            Energy/Eh            Energy/eV
      -------------------------------------------------------------
         1        2.0000           -0.7469738             -20.3262
         2        2.0000           -0.6498700             -17.6839
         3        2.0000           -0.5825165             -15.8511
         4        2.0000           -0.5740531             -15.6208
         5        2.0000           -0.5707328             -15.5304
         6        2.0000           -0.5132813             -13.9671
         7        2.0000           -0.4867566             -13.2453
         8        2.0000           -0.3903221             -10.6212 (HOMO)
         9                         -0.2547471              -6.9320 (LUMO)
        10                         -0.1654609              -4.5024
        11                          0.1356608               3.6915
        12                          0.3264946               8.8844
        13                          0.3554267               9.6717
        14                          1.1787244              32.0747
      -------------------------------------------------------------
                  HL-Gap            0.1355751 Eh            3.6892 eV

     #   Z        covCN         q      C6AA      Î±(0)
     1   6 C      1.836     0.252    25.335     8.131
     2   6 C      2.834    -0.204    33.391     9.469
     3   8 O      0.856    -0.240    18.728     5.802
     4   1 H      0.926     0.096     1.823     2.112
     5   1 H      0.926     0.096     1.822     2.111

Wiberg/Mayer (AO) data.
largest (>0.10) Wiberg bond orders for each atom
          total WBO             WBO to atom ...

molecular dipole:
                 x           y           z       tot (Debye)
 q only:        0.505       0.477      -0.066
   full:        0.581       0.550      -0.076       2.042

 projected vibrational frequencies (cm-1)
eigval :       -0.00    -0.00     0.00     0.00     0.00     0.00
eigval :      383.43   436.94   676.21   888.27  1198.63  1376.30
eigval :     2307.96  3139.84  3161.04

   temp. (K)  partition function   enthalpy   heat capacity  entropy
                                   cal/mol     cal/K/mol   cal/K/mol   J/K/mol
  10.00  VIB   1.00                    0.000      0.000     -0.001
         ROT   15.0                   29.809      2.981      8.368
         INT   15.0                   29.809      2.981      8.367
         TR   0.162E+25               49.681      4.968     20.259
         TOT                          79.4904     7.9490    28.6260   119.7710

       T/K    H(0)-H(T)+PV         H(T)/Eh          T*S/Eh         G(T)/Eh
   ------------------------------------------------------------------------
    298.15    0.458205E-02    0.354937E-01    0.275632E-01    0.793047E-02
    120.00    0.154955E-02    0.324612E-01    0.928605E-02    0.231751E-01
    100.00    0.127772E-02    0.321893E-01    0.749079E-02    0.246985E-01
     80.00    0.101596E-02    0.319276E-01    0.575919E-02    0.261684E-01
     60.00    0.760290E-03    0.316719E-01    0.409887E-02    0.275730E-01
     40.00    0.506706E-03    0.314183E-01    0.252701E-02    0.288913E-01
     20.00    0.253352E-03    0.311650E-01    0.108794E-02    0.300770E-01
     10.00    0.126676E-03    0.310383E-01    0.456184E-03    0.305821E-01 (used)
   ------------------------------------------------------------------------

         :::::::::::::::::::::::::::::::::::::::::::::::::::::
         ::                  THERMODYNAMIC                  ::
         :::::::::::::::::::::::::::::::::::::::::::::::::::::
         :: total free energy          -9.287604189654 Eh   ::
         ::.................................................::
         :: total energy               -9.318186299431 Eh   ::
         :: zero point energy           0.030911617504 Eh   ::
         :: G(RRHO) w/o ZPVE           -0.000329507728 Eh   ::
         :: G(RRHO) contrib.            0.030582109777 Eh   ::
         :::::::::::::::::::::::::::::::::::::::::::::::::::::

           -------------------------------------------------
          | TOTAL ENERGY               -9.318186299431 Eh   |
          | TOTAL ENTHALPY             -9.287148005911 Eh   |
          | TOTAL FREE ENERGY          -9.287604189654 Eh   |
          | GRADIENT NORM               0.000741247678 Eh/Î± |
          | HOMO-LUMO GAP               3.689185248006 eV   |
           -------------------------------------------------

 * finished run on 2020/05/12 at 11:45:13.379
