   * xtb version 6.2.2 (9d81278992624c895f80dd42a50cac0aa55982e2) compiled by '@Darwin' on 04/03/2020
          program call               : xtb --input H2C2N1_5_S_1.input H2C2N1_5_S_1.xyz --ohess --molden --namespace H2C2N1_5_S_1 output.out
          number of atoms            :                     5
          number of electrons        :                    15
          charge                     :                     0
          spin                       :                   0.5

   ID    Z sym.   atoms
    1    6 C      1, 3
    2    7 N      2
    3    1 H      4, 5

          :  Hamiltonian                  GFN2-xTB          :
 * total energy  :    -7.9243042 Eh     change       -0.9449614E-09 Eh
 * total energy  :    -8.0340231 Eh     change       -0.1097189E+00 Eh
 * total energy  :    -7.9985802 Eh     change        0.3544295E-01 Eh
 * total energy  :    -8.0789171 Eh     change       -0.8033695E-01 Eh
 * total energy  :    -8.0857596 Eh     change       -0.6842468E-02 Eh
 * total energy  :    -8.0926032 Eh     change       -0.6843636E-02 Eh
 * total energy  :    -8.0970114 Eh     change       -0.4408141E-02 Eh
 * total energy  :    -8.1011140 Eh     change       -0.4102681E-02 Eh
 * total energy  :    -8.1019604 Eh     change       -0.8463956E-03 Eh
 * total energy  :    -8.1024454 Eh     change       -0.4850012E-03 Eh
 * total energy  :    -8.1025795 Eh     change       -0.1340738E-03 Eh
 * total energy  :    -8.1025938 Eh     change       -0.1428911E-04 Eh
 * total energy  :    -8.1024734 Eh     change        0.1204107E-03 Eh
 * total energy  :    -8.1026102 Eh     change       -0.1368525E-03 Eh
 * total energy  :    -8.1026147 Eh     change       -0.4497917E-05 Eh
 * total energy  :    -8.1026214 Eh     change       -0.6681298E-05 Eh
 * total energy  :    -8.1026229 Eh     change       -0.1518490E-05 Eh
   *** GEOMETRY OPTIMIZATION CONVERGED AFTER 17 ITERATIONS ***

 final structure:
================
5
 xtb: 6.2.2 (9d81278992624c895f80dd42a50cac0aa55982e2)
C         0.78221979771097   -0.15304542058841    0.02694944416918
N         1.92240994262520   -0.37651524312284    0.06627555197552
C        -0.54613877584476    0.10698314034991   -0.01872300660639
H        -1.24087308297777   -0.51761063041857    0.51300770978160
H        -0.91761888151364    0.94018915377990   -0.58750969931991

          :  Hamiltonian                  GFN2-xTB          :
         :: gradient norm              0.000273029509 Eh/a0 ::
         :: HOMO-LUMO gap              4.577779643607 eV    ::
         :: SCC energy                -8.272700392261 Eh    ::
         :: -> dispersion             -0.001475634421 Eh    ::
         :: repulsion energy           0.170077437997 Eh    ::

    * Orbital Energies and Occupations

         #    Occupation            Energy/Eh            Energy/eV
      -------------------------------------------------------------
         1        2.0000           -0.6550335             -17.8244
         2        2.0000           -0.6333484             -17.2343
         3        2.0000           -0.5481721             -14.9165
         4        2.0000           -0.5358356             -14.5808
         5        2.0000           -0.5035904             -13.7034
         6        2.0000           -0.4668742             -12.7043
         7        2.0000           -0.4334182             -11.7939
         8        1.0000           -0.3846181             -10.4660 (HOMO)
         9                         -0.2163876              -5.8882 (LUMO)
        10                         -0.1640090              -4.4629
        11                          0.0997884               2.7154
        12                          0.2904117               7.9025
        13                          0.2913041               7.9268
        14                          1.1460710              31.1862
      -------------------------------------------------------------
                  HL-Gap            0.1682304 Eh            4.5778 eV

     #   Z        covCN         q      C6AA      Î±(0)
     1   6 C      1.891     0.121    28.131     8.566
     2   7 N      0.911    -0.220    25.811     7.348
     3   6 C      2.834    -0.072    29.792     8.944
     4   1 H      0.926     0.086     1.921     2.167
     5   1 H      0.926     0.086     1.921     2.168

Wiberg/Mayer (AO) data.
largest (>0.10) Wiberg bond orders for each atom
          total WBO             WBO to atom ...

molecular dipole:
                 x           y           z       tot (Debye)
 q only:       -0.897       0.176      -0.031
   full:       -1.390       0.272      -0.048       3.603

 projected vibrational frequencies (cm-1)
eigval :       -0.00    -0.00    -0.00    -0.00     0.00     0.00
eigval :      371.78   383.03   681.51   924.76  1136.33  1352.21
eigval :     2198.85  3110.80  3147.48

   temp. (K)  partition function   enthalpy   heat capacity  entropy
                                   cal/mol     cal/K/mol   cal/K/mol   J/K/mol
  10.00  VIB   1.00                    0.000      0.000     -0.001
         ROT   15.1                   29.809      2.981      8.369
         INT   15.1                   29.809      2.981      8.368
         TR   0.151E+25               49.681      4.968     20.115
         TOT                          79.4904     7.9490    28.4826   119.1714

       T/K    H(0)-H(T)+PV         H(T)/Eh          T*S/Eh         G(T)/Eh
   ------------------------------------------------------------------------
    298.15    0.464132E-02    0.349563E-01    0.276025E-01    0.735383E-02
    120.00    0.155878E-02    0.318738E-01    0.927036E-02    0.226034E-01
    100.00    0.128211E-02    0.315971E-01    0.747333E-02    0.241238E-01
     80.00    0.101732E-02    0.313323E-01    0.574254E-02    0.255898E-01
     60.00    0.760463E-03    0.310754E-01    0.408539E-02    0.269901E-01
     40.00    0.506709E-03    0.308217E-01    0.251789E-02    0.283038E-01
     20.00    0.253352E-03    0.305683E-01    0.108337E-02    0.294850E-01
     10.00    0.126676E-03    0.304417E-01    0.453900E-03    0.299878E-01 (used)
   ------------------------------------------------------------------------

         :::::::::::::::::::::::::::::::::::::::::::::::::::::
         ::                  THERMODYNAMIC                  ::
         :::::::::::::::::::::::::::::::::::::::::::::::::::::
         :: total free energy          -8.072635174679 Eh   ::
         ::.................................................::
         :: total energy               -8.102622936346 Eh   ::
         :: zero point energy           0.030314985550 Eh   ::
         :: G(RRHO) w/o ZPVE           -0.000327223882 Eh   ::
         :: G(RRHO) contrib.            0.029987761667 Eh   ::
         :::::::::::::::::::::::::::::::::::::::::::::::::::::

           -------------------------------------------------
          | TOTAL ENERGY               -8.102622936346 Eh   |
          | TOTAL ENTHALPY             -8.072181274781 Eh   |
          | TOTAL FREE ENERGY          -8.072635174679 Eh   |
          | GRADIENT NORM               0.000272722571 Eh/Î± |
          | HOMO-LUMO GAP               4.577782483969 eV   |
           -------------------------------------------------

 * finished run on 2020/05/12 at 11:44:46.529
