   * xtb version 6.2.2 (9d81278992624c895f80dd42a50cac0aa55982e2) compiled by '@Darwin' on 04/03/2020
          program call               : xtb --input C4N1_37_S_1.input C4N1_37_S_1.xyz --ohess --molden --namespace C4N1_37_S_1 output.out
          number of atoms            :                     5
          number of electrons        :                    21
          charge                     :                     0
          spin                       :                   0.5

   ID    Z sym.   atoms
    1    7 N      1
    2    6 C      2-5

          :  Hamiltonian                  GFN2-xTB          :
 * total energy  :   -11.0114537 Eh     change       -0.2669687E-10 Eh
 * total energy  :   -11.0194675 Eh     change       -0.8013803E-02 Eh
 * total energy  :   -11.0243691 Eh     change       -0.4901574E-02 Eh
 * total energy  :   -11.0221117 Eh     change        0.2257370E-02 Eh
 * total energy  :   -11.0313820 Eh     change       -0.9270257E-02 Eh
 * total energy  :   -11.0329605 Eh     change       -0.1578528E-02 Eh
 * total energy  :   -11.0335847 Eh     change       -0.6241964E-03 Eh
 * total energy  :   -11.0336175 Eh     change       -0.3277815E-04 Eh
 * total energy  :   -11.0336282 Eh     change       -0.1066701E-04 Eh
 * total energy  :   -11.0351958 Eh     change       -0.1567656E-02 Eh
 * total energy  :   -11.0286449 Eh     change        0.6550954E-02 Eh
 * total energy  :   -11.0476067 Eh     change       -0.1896188E-01 Eh
 * total energy  :   -11.0546558 Eh     change       -0.7049047E-02 Eh
 * total energy  :   -11.0565267 Eh     change       -0.1870884E-02 Eh
 * total energy  :   -11.0567964 Eh     change       -0.2697788E-03 Eh
 * total energy  :   -11.0568528 Eh     change       -0.5630601E-04 Eh
 * total energy  :   -11.0568579 Eh     change       -0.5135653E-05 Eh
 * total energy  :   -11.0568588 Eh     change       -0.8810304E-06 Eh
   *** GEOMETRY OPTIMIZATION CONVERGED AFTER 18 ITERATIONS ***

 final structure:
================
5
 xtb: 6.2.2 (9d81278992624c895f80dd42a50cac0aa55982e2)
N        -0.93830977726860   -0.04300104987327    0.48803461990346
C        -0.28499322030860   -0.54396827645045   -0.65847954861157
C         1.01547167833557   -0.65369901736397   -0.10371284233107
C        -0.19744543976874    0.93480400713173   -0.46944339336706
C         0.40527675901037    0.30586433655596    0.74360016440623

          :  Hamiltonian                  GFN2-xTB          :
         :: gradient norm              0.000853561624 Eh/a0 ::
         :: HOMO-LUMO gap              1.747250562716 eV    ::
         :: SCC energy               -11.185283156731 Eh    ::
         :: -> dispersion             -0.002461214128 Eh    ::
         :: repulsion energy           0.128424367464 Eh    ::

    * Orbital Energies and Occupations

         #    Occupation            Energy/Eh            Energy/eV
      -------------------------------------------------------------
         1        2.0000           -0.7897773             -21.4909
         2        2.0000           -0.6881775             -18.7263
         3        2.0000           -0.6568320             -17.8733
         4        2.0000           -0.6476141             -17.6225
         5        2.0000           -0.5764584             -15.6862
         6        2.0000           -0.5352782             -14.5657
         7        2.0000           -0.5035412             -13.7021
         8        2.0000           -0.4963027             -13.5051
         9        2.0000           -0.4884651             -13.2918
        10        2.0000           -0.4733377             -12.8802
        11        1.0000           -0.4298674             -11.6973 (HOMO)
        12                         -0.3656570              -9.9500 (LUMO)
        13                         -0.3397620              -9.2454
        14                         -0.1887032              -5.1349
        15                         -0.1079304              -2.9369
        16                          0.0582600               1.5853
        17                          0.0937686               2.5516
        18                          0.1060892               2.8868
        19                          0.1250183               3.4019
        20                          0.4625658              12.5871
      -------------------------------------------------------------
                  HL-Gap            0.0642104 Eh            1.7473 eV

     #   Z        covCN         q      C6AA      Î±(0)
     1   7 N      2.857    -0.101    23.224     7.157
     2   6 C      3.729     0.093    19.133     6.245
     3   6 C      2.528    -0.012    28.424     8.712
     4   6 C      3.275    -0.072    28.337     8.576
     5   6 C      3.729     0.093    19.133     6.245

Wiberg/Mayer (AO) data.
largest (>0.10) Wiberg bond orders for each atom
          total WBO             WBO to atom ...

molecular dipole:
                 x           y           z       tot (Debye)
 q only:        0.204      -0.146      -0.012
   full:        0.127      -0.360       0.156       1.047

 projected vibrational frequencies (cm-1)
eigval :       -0.00    -0.00    -0.00     0.00     0.00     0.00
eigval :      236.70   564.52   759.42   796.06   989.85  1031.02
eigval :     1069.11  1313.48  1405.25

   temp. (K)  partition function   enthalpy   heat capacity  entropy
                                   cal/mol     cal/K/mol   cal/K/mol   J/K/mol
  10.00  VIB   1.00                    0.000      0.000     -0.003
         ROT   135.                   29.809      2.981     12.733
         INT   135.                   29.809      2.981     12.730
         TR   0.290E+25               49.681      4.968     21.419
         TOT                          79.4904     7.9490    34.1496   142.8821

       T/K    H(0)-H(T)+PV         H(T)/Eh          T*S/Eh         G(T)/Eh
   ------------------------------------------------------------------------
    298.15    0.475038E-02    0.233525E-01    0.305139E-01   -0.716139E-02
    120.00    0.159085E-02    0.201930E-01    0.104017E-01    0.979133E-02
    100.00    0.130465E-02    0.199068E-01    0.840738E-02    0.114994E-01
     80.00    0.102901E-02    0.196312E-01    0.648010E-02    0.131511E-01
     60.00    0.763769E-03    0.193659E-01    0.463139E-02    0.147345E-01
     40.00    0.506921E-03    0.191091E-01    0.287949E-02    0.162296E-01
     20.00    0.253352E-03    0.188555E-01    0.126402E-02    0.175915E-01
     10.00    0.126676E-03    0.187288E-01    0.544209E-03    0.181846E-01 (used)
   ------------------------------------------------------------------------

         :::::::::::::::::::::::::::::::::::::::::::::::::::::
         ::                  THERMODYNAMIC                  ::
         :::::::::::::::::::::::::::::::::::::::::::::::::::::
         :: total free energy         -11.038674138753 Eh   ::
         ::.................................................::
         :: total energy              -11.056858771252 Eh   ::
         :: zero point energy           0.018602165674 Eh   ::
         :: G(RRHO) w/o ZPVE           -0.000417533175 Eh   ::
         :: G(RRHO) contrib.            0.018184632499 Eh   ::
         :::::::::::::::::::::::::::::::::::::::::::::::::::::

           -------------------------------------------------
          | TOTAL ENERGY              -11.056858771252 Eh   |
          | TOTAL ENTHALPY            -11.038129929562 Eh   |
          | TOTAL FREE ENERGY         -11.038674138753 Eh   |
          | GRADIENT NORM               0.000853802850 Eh/Î± |
          | HOMO-LUMO GAP               1.747254437811 eV   |
           -------------------------------------------------

 * finished run on 2020/05/12 at 11:44:14.885
