   * xtb version 6.2.2 (9d81278992624c895f80dd42a50cac0aa55982e2) compiled by '@Darwin' on 04/03/2020
          program call               : xtb --input C3O1_2_S_0.input C3O1_2_S_0.xyz --ohess --molden --namespace C3O1_2_S_0 output.out
          number of atoms            :                     4
          number of electrons        :                    18
          charge                     :                     0
          spin                       :                   0.0

   ID    Z sym.   atoms
    1    6 C      1, 3, 4
    2    8 O      2

          :  Hamiltonian                  GFN2-xTB          :
 * total energy  :   -10.0262189 Eh     change       -0.4517933E-09 Eh
 * total energy  :   -10.1147167 Eh     change       -0.8849778E-01 Eh
 * total energy  :   -10.0465368 Eh     change        0.6817991E-01 Eh
 * total energy  :   -10.1554128 Eh     change       -0.1088760E+00 Eh
 * total energy  :   -10.1623361 Eh     change       -0.6923376E-02 Eh
 * total energy  :   -10.1665381 Eh     change       -0.4201967E-02 Eh
 * total energy  :   -10.1707160 Eh     change       -0.4177871E-02 Eh
 * total energy  :   -10.1739364 Eh     change       -0.3220435E-02 Eh
 * total energy  :   -10.1768401 Eh     change       -0.2903661E-02 Eh
 * total energy  :   -10.1790993 Eh     change       -0.2259267E-02 Eh
 * total energy  :   -10.2140151 Eh     change       -0.1110697E-03 Eh
 * total energy  :   -10.2141651 Eh     change       -0.1499800E-03 Eh
 * total energy  :   -10.2142077 Eh     change       -0.4261136E-04 Eh
 * total energy  :   -10.2142206 Eh     change       -0.1287282E-04 Eh
 * total energy  :   -10.2142419 Eh     change       -0.2131864E-04 Eh
 * total energy  :   -10.2136834 Eh     change        0.5585245E-03 Eh
 * total energy  :   -10.2142597 Eh     change       -0.5763048E-03 Eh
 * total energy  :   -10.2142647 Eh     change       -0.5011001E-05 Eh
 * total energy  :   -10.2142694 Eh     change       -0.4759295E-05 Eh
   *** GEOMETRY OPTIMIZATION CONVERGED AFTER 28 ITERATIONS ***

 final structure:
================
4
 xtb: 6.2.2 (9d81278992624c895f80dd42a50cac0aa55982e2)
C        -1.76417907309883   -0.19391854098237   -0.33518240688196
O        -0.64094633818423   -0.07054454248160   -0.12132513691591
C         0.59552328652015    0.06555434674302    0.11500335988484
C         1.80960212476291    0.19890773672095    0.34150418391304

          :  Hamiltonian                  GFN2-xTB          :
         :: gradient norm              0.000529369407 Eh/a0 ::
         :: HOMO-LUMO gap              2.729661731170 eV    ::
         :: SCC energy               -10.381534536234 Eh    ::
         :: -> dispersion             -0.001674562094 Eh    ::
         :: repulsion energy           0.167265189760 Eh    ::

    * Orbital Energies and Occupations

         #    Occupation            Energy/Eh            Energy/eV
      -------------------------------------------------------------
         1        2.0000           -0.8477667             -23.0689
         2        2.0000           -0.7858000             -21.3827
         3        2.0000           -0.6853872             -18.6503
         4        2.0000           -0.6853872             -18.6503
         5        2.0000           -0.6380926             -17.3634
         6        2.0000           -0.5212209             -14.1831
         7        2.0000           -0.4423106             -12.0359
         8        2.0000           -0.4423097             -12.0359
         9        2.0000           -0.4170035             -11.3472 (HOMO)
        10                         -0.3166909              -8.6176 (LUMO)
        11                         -0.3166908              -8.6176
        12                         -0.1468438              -3.9958
        13                         -0.1468405              -3.9957
        14                          0.0439736               1.1966
        15                          0.7536289              20.5073
        16                          1.2792741              34.8108
      -------------------------------------------------------------
                  HL-Gap            0.1003126 Eh            2.7296 eV

     #   Z        covCN         q      C6AA      Î±(0)
     1   6 C      0.869    -0.050    36.686    10.114
     2   8 O      1.711     0.210    12.038     4.685
     3   6 C      1.849     0.042    30.073     8.858
     4   6 C      0.981    -0.202    42.713    10.977

Wiberg/Mayer (AO) data.
largest (>0.10) Wiberg bond orders for each atom
          total WBO             WBO to atom ...

molecular dipole:
                 x           y           z       tot (Debye)
 q only:       -0.730      -0.080      -0.138
   full:       -0.912      -0.100      -0.171       2.372

   temp. (K)  partition function   enthalpy   heat capacity  entropy
                                   cal/mol     cal/K/mol   cal/K/mol   J/K/mol
  10.00  VIB   1.00                    0.000      0.000     -0.011
         ROT   37.8                   19.873      1.987      9.204
         INT   37.8                   19.873      1.987      9.193
         TR   0.223E+25               49.681      4.968     20.895
         TOT                          69.5541     6.9554    30.0879   125.8879

       T/K    H(0)-H(T)+PV         H(T)/Eh          T*S/Eh         G(T)/Eh
   ------------------------------------------------------------------------
    298.15    0.489583E-02    0.194084E-01    0.282153E-01   -0.880693E-02
    120.00    0.153204E-02    0.160446E-01    0.934401E-02    0.670058E-02
    100.00    0.122822E-02    0.157408E-01    0.751008E-02    0.823068E-02
     80.00    0.944083E-03    0.154566E-01    0.575485E-02    0.970177E-02
     60.00    0.682695E-03    0.151952E-01    0.409102E-02    0.111042E-01
     40.00    0.445111E-03    0.149577E-01    0.253515E-02    0.124225E-01
     20.00    0.221685E-03    0.147342E-01    0.111277E-02    0.136215E-01
     10.00    0.110842E-03    0.146234E-01    0.479482E-03    0.141439E-01 (used)
   ------------------------------------------------------------------------

         :::::::::::::::::::::::::::::::::::::::::::::::::::::
         ::                  THERMODYNAMIC                  ::
         :::::::::::::::::::::::::::::::::::::::::::::::::::::
         :: total free energy         -10.200125524225 Eh   ::
         ::.................................................::
         :: total energy              -10.214269428044 Eh   ::
         :: zero point energy           0.014512544111 Eh   ::
         :: G(RRHO) w/o ZPVE           -0.000368640292 Eh   ::
         :: G(RRHO) contrib.            0.014143903819 Eh   ::
         :::::::::::::::::::::::::::::::::::::::::::::::::::::

           -------------------------------------------------
          | TOTAL ENERGY              -10.214269428044 Eh   |
          | TOTAL ENTHALPY            -10.199646042419 Eh   |
          | TOTAL FREE ENERGY         -10.200125524225 Eh   |
          | GRADIENT NORM               0.000527786144 Eh/Î± |
          | HOMO-LUMO GAP               2.729645405700 eV   |
           -------------------------------------------------

 * finished run on 2020/05/12 at 11:45:18.108
