   * xtb version 6.2.2 (9d81278992624c895f80dd42a50cac0aa55982e2) compiled by '@Darwin' on 04/03/2020
          program call               : xtb --input C3N1_7_S_1.input C3N1_7_S_1.xyz --ohess --molden --namespace C3N1_7_S_1 output.out
          number of atoms            :                     4
          number of electrons        :                    17
          charge                     :                     0
          spin                       :                   0.5

   ID    Z sym.   atoms
    1    6 C      1-3
    2    7 N      4

          :  Hamiltonian                  GFN2-xTB          :
 * total energy  :    -8.8960588 Eh     change       -0.2374438E-09 Eh
 * total energy  :    -8.9495096 Eh     change       -0.5345086E-01 Eh
 * total energy  :    -8.9309470 Eh     change        0.1856260E-01 Eh
 * total energy  :    -8.9774507 Eh     change       -0.4650366E-01 Eh
 * total energy  :    -8.9788749 Eh     change       -0.1424164E-02 Eh
 * total energy  :    -8.9791794 Eh     change       -0.3044824E-03 Eh
 * total energy  :    -8.9791836 Eh     change       -0.4240387E-05 Eh
   *** GEOMETRY OPTIMIZATION CONVERGED AFTER 7 ITERATIONS ***

 final structure:
================
4
 xtb: 6.2.2 (9d81278992624c895f80dd42a50cac0aa55982e2)
C        -0.57877214210474   -0.49237019469817   -0.06819118224505
C        -0.72313739251342    0.93937564421132   -0.17268662988928
C         0.61124398622312    0.45017898093360    0.07597094441846
N         0.69066454839504   -0.89718443044675    0.16490686771587

          :  Hamiltonian                  GFN2-xTB          :
         :: gradient norm              0.000260649668 Eh/a0 ::
         :: HOMO-LUMO gap              1.587703257096 eV    ::
         :: SCC energy                -9.087361630949 Eh    ::
         :: -> dispersion             -0.001725022787 Eh    ::
         :: repulsion energy           0.108178036394 Eh    ::

    * Orbital Energies and Occupations

         #    Occupation            Energy/Eh            Energy/eV
      -------------------------------------------------------------
         1        2.0000           -0.7703764             -20.9630
         2        2.0000           -0.6845301             -18.6270
         3        2.0000           -0.6315007             -17.1840
         4        2.0000           -0.5949079             -16.1883
         5        2.0000           -0.5569197             -15.1546
         6        2.0000           -0.5211505             -14.1812
         7        2.0000           -0.4765443             -12.9674
         8        1.9998           -0.4416836             -12.0188
         9        1.0002           -0.4253007             -11.5730 (HOMO)
        10                         -0.3669537              -9.9853 (LUMO)
        11                         -0.3108605              -8.4589
        12                         -0.2557232              -6.9586
        13                          0.1059485               2.8830
        14                          0.1874521               5.1008
        15                          0.2023788               5.5070
        16                          0.2965274               8.0689
      -------------------------------------------------------------
                  HL-Gap            0.0583470 Eh            1.5877 eV

     #   Z        covCN         q      C6AA      Î±(0)
     1   6 C      2.864     0.113    25.508     8.279
     2   6 C      1.973    -0.115    34.251     9.451
     3   6 C      2.864     0.113    25.508     8.279
     4   7 N      1.834    -0.111    24.190     7.288

Wiberg/Mayer (AO) data.
largest (>0.10) Wiberg bond orders for each atom
          total WBO             WBO to atom ...

molecular dipole:
                 x           y           z       tot (Debye)
 q only:        0.019      -0.024       0.004
   full:        0.193      -0.250       0.046       0.811

 projected vibrational frequencies (cm-1)
eigval :       -0.00    -0.00    -0.00     0.00     0.00     0.00
eigval :     -260.41   113.60   474.38   930.10  1321.87  1492.63

   temp. (K)  partition function   enthalpy   heat capacity  entropy
                                   cal/mol     cal/K/mol   cal/K/mol   J/K/mol
  10.00  VIB   1.00                    0.000      0.000     -0.024
         ROT   36.7                   29.809      2.981     10.142
         INT   36.7                   29.809      2.981     10.118
         TR   0.210E+25               49.681      4.968     20.778
         TOT                          79.4904     7.9491    30.8967   129.2719

       T/K    H(0)-H(T)+PV         H(T)/Eh          T*S/Eh         G(T)/Eh
   ------------------------------------------------------------------------
    298.15    0.479302E-02    0.146634E-01    0.294463E-01   -0.147829E-01
    120.00    0.170576E-02    0.115761E-01    0.999065E-02    0.158545E-02
    100.00    0.139455E-02    0.112649E-01    0.804271E-02    0.322218E-02
     80.00    0.109093E-02    0.109613E-01    0.616390E-02    0.479738E-02
     60.00    0.796426E-03    0.106668E-01    0.436931E-02    0.629746E-02
     40.00    0.515552E-03    0.103859E-01    0.268549E-02    0.770040E-02
     20.00    0.253498E-03    0.101238E-01    0.116125E-02    0.896259E-02
     10.00    0.126676E-03    0.999702E-02    0.492371E-03    0.950465E-02 (used)
   ------------------------------------------------------------------------

         :::::::::::::::::::::::::::::::::::::::::::::::::::::
         ::                  THERMODYNAMIC                  ::
         :::::::::::::::::::::::::::::::::::::::::::::::::::::
         :: total free energy          -8.969678943666 Eh   ::
         ::.................................................::
         :: total energy               -8.979183591683 Eh   ::
         :: zero point energy           0.009870342553 Eh   ::
         :: G(RRHO) w/o ZPVE           -0.000365694536 Eh   ::
         :: G(RRHO) contrib.            0.009504648017 Eh   ::
         :::::::::::::::::::::::::::::::::::::::::::::::::::::

           -------------------------------------------------
          | TOTAL ENERGY               -8.979183591683 Eh   |
          | TOTAL ENTHALPY             -8.969186573073 Eh   |
          | TOTAL FREE ENERGY          -8.969678943666 Eh   |
          | GRADIENT NORM               0.000260724967 Eh/Î± |
          | HOMO-LUMO GAP               1.587703676062 eV   |
           -------------------------------------------------

 * finished run on 2020/05/12 at 11:45:06.022
