   * xtb version 6.2.2 (9d81278992624c895f80dd42a50cac0aa55982e2) compiled by '@Darwin' on 04/03/2020
          program call               : xtb --input H2C1N2_6_S_0.input H2C1N2_6_S_0.xyz --ohess --molden --namespace H2C1N2_6_S_0 output.out
          number of atoms            :                     5
          number of electrons        :                    16
          charge                     :                     0
          spin                       :                   0.0

   ID    Z sym.   atoms
    1    6 C      1
    2    7 N      2, 3
    3    1 H      4, 5

          :  Hamiltonian                  GFN2-xTB          :
 * total energy  :    -8.6741963 Eh     change       -0.3680309E-09 Eh
 * total energy  :    -8.7047427 Eh     change       -0.3054642E-01 Eh
 * total energy  :    -8.7351422 Eh     change       -0.3039950E-01 Eh
 * total energy  :    -8.8830200 Eh     change       -0.1478778E+00 Eh
 * total energy  :    -7.1879014 Eh     change        0.1695119E+01 Eh
 * total energy  :    -8.8477876 Eh     change       -0.1659886E+01 Eh
 * total energy  :    -8.8671379 Eh     change       -0.1935028E-01 Eh
 * total energy  :    -8.8785499 Eh     change       -0.1141203E-01 Eh
 * total energy  :    -8.8853287 Eh     change       -0.6778813E-02 Eh
 * total energy  :    -8.8877701 Eh     change       -0.2441405E-02 Eh
 * total energy  :    -8.8905160 Eh     change       -0.2745825E-02 Eh
 * total energy  :    -8.8907082 Eh     change       -0.1922585E-03 Eh
 * total energy  :    -8.8907187 Eh     change       -0.1053348E-04 Eh
 * total energy  :    -8.8907189 Eh     change       -0.1767191E-06 Eh
   *** GEOMETRY OPTIMIZATION CONVERGED AFTER 14 ITERATIONS ***

 final structure:
================
5
 xtb: 6.2.2 (9d81278992624c895f80dd42a50cac0aa55982e2)
C        -0.03529628808231   -0.29512692271887    0.00916279075503
N        -0.48258411110921    1.07048443462560   -0.07428931588886
N         0.72173208940487    0.92913776847524    0.01220709162732
H        -0.16380601968677   -0.81627242908728    0.94682479659991
H        -0.04004567052658   -0.88822285129469   -0.89390536309340

          :  Hamiltonian                  GFN2-xTB          :
         :: gradient norm              0.000126908873 Eh/a0 ::
         :: HOMO-LUMO gap              2.909753469352 eV    ::
         :: SCC energy                -8.985459512393 Eh    ::
         :: -> dispersion             -0.001425274569 Eh    ::
         :: repulsion energy           0.094740571677 Eh    ::

    * Orbital Energies and Occupations

         #    Occupation            Energy/Eh            Energy/eV
      -------------------------------------------------------------
         1        2.0000           -0.7440741             -20.2473
         2        2.0000           -0.6292412             -17.1225
         3        2.0000           -0.5956108             -16.2074
         4        2.0000           -0.5843127             -15.9000
         5        2.0000           -0.5446914             -14.8218
         6        2.0000           -0.4764596             -12.9651
         7        2.0000           -0.4555563             -12.3963
         8        2.0000           -0.4389941             -11.9456 (HOMO)
         9                         -0.3320626              -9.0359 (LUMO)
        10                         -0.1022255              -2.7817
        11                          0.0668700               1.8196
        12                          0.1902222               5.1762
        13                          0.2477046               6.7404
        14                          0.3677220              10.0062
      -------------------------------------------------------------
                  HL-Gap            0.1069315 Eh            2.9098 eV

     #   Z        covCN         q      C6AA      Î±(0)
     1   6 C      3.667     0.045    20.059     6.422
     2   7 N      1.889    -0.060    23.125     7.129
     3   7 N      1.889    -0.060    23.125     7.129
     4   1 H      0.926     0.037     2.491     2.468
     5   1 H      0.926     0.037     2.491     2.468

Wiberg/Mayer (AO) data.
largest (>0.10) Wiberg bond orders for each atom
Molecule has the following symmetry elements: (C2) 2*(sigma)

molecular dipole:
                 x           y           z       tot (Debye)
 q only:       -0.044      -0.369       0.011
   full:       -0.074      -0.621       0.019       1.591

 projected vibrational frequencies (cm-1)
eigval :       -0.00    -0.00    -0.00     0.00     0.00     0.00
eigval :      953.80   980.43   983.55  1091.20  1195.96  1444.53
eigval :     1800.65  3090.77  3101.26

   temp. (K)  partition function   enthalpy   heat capacity  entropy
                                   cal/mol     cal/K/mol   cal/K/mol   J/K/mol
  10.00  VIB   1.00                    0.000      0.000     -0.000
         ROT   19.7                   29.809      2.981      8.901
         INT   19.7                   29.809      2.981      8.901
         TR   0.162E+25               49.681      4.968     20.259
         TOT                          79.4904     7.9490    29.1607   122.0082

       T/K    H(0)-H(T)+PV         H(T)/Eh          T*S/Eh         G(T)/Eh
   ------------------------------------------------------------------------
    298.15    0.395026E-02    0.373075E-01    0.268821E-01    0.104254E-01
    120.00    0.152024E-02    0.348775E-01    0.935279E-02    0.255247E-01
    100.00    0.126677E-02    0.346240E-01    0.756300E-02    0.270610E-01
     80.00    0.101341E-02    0.343707E-01    0.582433E-02    0.285463E-01
     60.00    0.760056E-03    0.341173E-01    0.414966E-02    0.299677E-01
     40.00    0.506704E-03    0.338640E-01    0.256105E-02    0.313029E-01
     20.00    0.253352E-03    0.336106E-01    0.110497E-02    0.325056E-01
     10.00    0.126676E-03    0.334839E-01    0.464705E-03    0.330192E-01 (used)
   ------------------------------------------------------------------------

         :::::::::::::::::::::::::::::::::::::::::::::::::::::
         ::                  THERMODYNAMIC                  ::
         :::::::::::::::::::::::::::::::::::::::::::::::::::::
         :: total free energy          -8.857699684777 Eh   ::
         ::.................................................::
         :: total energy               -8.890718920145 Eh   ::
         :: zero point energy           0.033357264039 Eh   ::
         :: G(RRHO) w/o ZPVE           -0.000338028671 Eh   ::
         :: G(RRHO) contrib.            0.033019235368 Eh   ::
         :::::::::::::::::::::::::::::::::::::::::::::::::::::

           -------------------------------------------------
          | TOTAL ENERGY               -8.890718920145 Eh   |
          | TOTAL ENTHALPY             -8.857234980091 Eh   |
          | TOTAL FREE ENERGY          -8.857699684777 Eh   |
          | GRADIENT NORM               0.000126883371 Eh/Î± |
          | HOMO-LUMO GAP               2.909753274399 eV   |
           -------------------------------------------------

 * finished run on 2020/05/12 at 11:45:22.040
