   * xtb version 6.2.2 (9d81278992624c895f80dd42a50cac0aa55982e2) compiled by '@Darwin' on 04/03/2020
          program call               : xtb --input H2C1N2_8_S_0.input H2C1N2_8_S_0.xyz --ohess --molden --namespace H2C1N2_8_S_0 output.out
          number of atoms            :                     5
          number of electrons        :                    16
          charge                     :                     0
          spin                       :                   0.0

   ID    Z sym.   atoms
    1    6 C      1
    2    7 N      2, 3
    3    1 H      4, 5

          :  Hamiltonian                  GFN2-xTB          :
 * total energy  :    -8.7820373 Eh     change       -0.9540475E-09 Eh
 * total energy  :    -8.8981093 Eh     change       -0.1160720E+00 Eh
 * total energy  :    -8.8428480 Eh     change        0.5526125E-01 Eh
 * total energy  :    -8.9449802 Eh     change       -0.1021322E+00 Eh
 * total energy  :    -8.9497208 Eh     change       -0.4740624E-02 Eh
 * total energy  :    -8.9540206 Eh     change       -0.4299753E-02 Eh
 * total energy  :    -8.9534782 Eh     change        0.5423528E-03 Eh
 * total energy  :    -8.9563423 Eh     change       -0.2864103E-02 Eh
 * total energy  :    -8.9566958 Eh     change       -0.3534575E-03 Eh
 * total energy  :    -8.9568372 Eh     change       -0.1414199E-03 Eh
 * total energy  :    -8.9568817 Eh     change       -0.4443006E-04 Eh
 * total energy  :    -8.9568916 Eh     change       -0.9977293E-05 Eh
 * total energy  :    -8.9569006 Eh     change       -0.8961102E-05 Eh
 * total energy  :    -8.9569176 Eh     change       -0.1703931E-04 Eh
 * total energy  :    -8.9569187 Eh     change       -0.1024187E-05 Eh
   *** GEOMETRY OPTIMIZATION CONVERGED AFTER 15 ITERATIONS ***

 final structure:
================
5
 xtb: 6.2.2 (9d81278992624c895f80dd42a50cac0aa55982e2)
C         0.75001462959814   -0.02952463495123    0.00700097569313
N        -0.55551642339730   -0.01807381888003   -0.18556615499215
N         1.89090455679074   -0.05312313541127    0.11258678137096
H        -1.00865837547040    0.88229965304524   -0.15158427340176
H        -1.07674438752118   -0.78157906380271    0.21756267132982

          :  Hamiltonian                  GFN2-xTB          :
         :: gradient norm              0.000297972424 Eh/a0 ::
         :: HOMO-LUMO gap              5.897211566063 eV    ::
         :: SCC energy                -9.125850385974 Eh    ::
         :: -> dispersion             -0.001384921573 Eh    ::
         :: repulsion energy           0.168931716923 Eh    ::

    * Orbital Energies and Occupations

         #    Occupation            Energy/Eh            Energy/eV
      -------------------------------------------------------------
         1        2.0000           -0.6646672             -18.0865
         2        2.0000           -0.6359910             -17.3062
         3        2.0000           -0.5826619             -15.8550
         4        2.0000           -0.5752426             -15.6531
         5        2.0000           -0.5090990             -13.8533
         6        2.0000           -0.4622992             -12.5798
         7        2.0000           -0.4222786             -11.4908
         8        2.0000           -0.4113385             -11.1931 (HOMO)
         9                         -0.1946200              -5.2959 (LUMO)
        10                         -0.1626614              -4.4262
        11                          0.0087834               0.2390
        12                          0.2249431               6.1210
        13                          0.2327712               6.3340
        14                          1.2042999              32.7707
      -------------------------------------------------------------
                  HL-Gap            0.2167185 Eh            5.8972 eV

     #   Z        covCN         q      C6AA      Î±(0)
     1   6 C      1.821     0.167    27.159     8.420
     2   7 N      2.631    -0.242    26.325     7.620
     3   7 N      0.911    -0.292    27.529     7.588
     4   1 H      0.860     0.184     1.192     1.710
Molecule has the following symmetry elements: (sigma)
It seems to be the Cs point group
     5   1 H      0.860     0.184     1.192     1.710

Wiberg/Mayer (AO) data.
largest (>0.10) Wiberg bond orders for each atom
          total WBO             WBO to atom ...

molecular dipole:
                 x           y           z       tot (Debye)
 q only:       -1.279       0.063       0.048
   full:       -1.873       0.119       0.187       4.793

 projected vibrational frequencies (cm-1)
eigval :       -0.00    -0.00    -0.00     0.00     0.00     0.00
eigval :      407.33   452.83   506.29  1017.40  1146.98  1441.53
eigval :     2441.08  3437.23  3480.10

   temp. (K)  partition function   enthalpy   heat capacity  entropy
                                   cal/mol     cal/K/mol   cal/K/mol   J/K/mol
  10.00  VIB   1.00                    0.000      0.000     -0.001
         ROT   29.2                   29.809      2.981      9.683
         INT   29.2                   29.809      2.981      9.682
         TR   0.162E+25               49.681      4.968     20.259
         TOT                          79.4904     7.9490    29.9416   125.2757

       T/K    H(0)-H(T)+PV         H(T)/Eh          T*S/Eh         G(T)/Eh
   ------------------------------------------------------------------------
    298.15    0.462156E-02    0.372694E-01    0.282426E-01    0.902684E-02
    120.00    0.154873E-02    0.341966E-01    0.953625E-02    0.246604E-01
    100.00    0.127671E-02    0.339246E-01    0.769914E-02    0.262254E-01
     80.00    0.101549E-02    0.336634E-01    0.592635E-02    0.277370E-01
     60.00    0.760214E-03    0.334081E-01    0.422458E-02    0.291835E-01
     40.00    0.506705E-03    0.331546E-01    0.261087E-02    0.305437E-01
     20.00    0.253352E-03    0.329012E-01    0.112987E-02    0.317714E-01
     10.00    0.126676E-03    0.327746E-01    0.477150E-03    0.322974E-01 (used)
   ------------------------------------------------------------------------

         :::::::::::::::::::::::::::::::::::::::::::::::::::::
         ::                  THERMODYNAMIC                  ::
         :::::::::::::::::::::::::::::::::::::::::::::::::::::
         :: total free energy          -8.924621248277 Eh   ::
         ::.................................................::
         :: total energy               -8.956918658263 Eh   ::
         :: zero point energy           0.032647883725 Eh   ::
         :: G(RRHO) w/o ZPVE           -0.000350473738 Eh   ::
         :: G(RRHO) contrib.            0.032297409986 Eh   ::
         :::::::::::::::::::::::::::::::::::::::::::::::::::::

           -------------------------------------------------
          | TOTAL ENERGY               -8.956918658263 Eh   |
          | TOTAL ENTHALPY             -8.924144098523 Eh   |
          | TOTAL FREE ENERGY          -8.924621248277 Eh   |
          | GRADIENT NORM               0.000297941464 Eh/Î± |
          | HOMO-LUMO GAP               5.897211647730 eV   |
           -------------------------------------------------

 * finished run on 2020/05/12 at 11:45:22.721
