   * xtb version 6.2.2 (9d81278992624c895f80dd42a50cac0aa55982e2) compiled by '@Darwin' on 04/03/2020
          program call               : xtb --input H1C3N1_33_S_0.input H1C3N1_33_S_0.xyz --ohess --molden --namespace H1C3N1_33_S_0 output.out
          number of atoms            :                     5
          number of electrons        :                    18
          charge                     :                     0
          spin                       :                   0.0

   ID    Z sym.   atoms
    1    6 C      1-3
    2    7 N      4
    3    1 H      5

          :  Hamiltonian                  GFN2-xTB          :
 * total energy  :    -9.4106997 Eh     change       -0.3768843E-09 Eh
 * total energy  :    -9.4290753 Eh     change       -0.1837562E-01 Eh
 * total energy  :    -9.4673446 Eh     change       -0.3826935E-01 Eh
 * total energy  :    -9.5272248 Eh     change       -0.5988020E-01 Eh
 * total energy  :    -9.5318329 Eh     change       -0.4608117E-02 Eh
 * total energy  :    -9.5365963 Eh     change       -0.4763379E-02 Eh
 * total energy  :    -9.5370629 Eh     change       -0.4665746E-03 Eh
 * total energy  :    -9.5373910 Eh     change       -0.3280989E-03 Eh
 * total energy  :    -9.5377123 Eh     change       -0.3212988E-03 Eh
 * total energy  :    -9.5378521 Eh     change       -0.1398329E-03 Eh
 * total energy  :    -9.5378892 Eh     change       -0.3703787E-04 Eh
 * total energy  :    -9.5378994 Eh     change       -0.1023411E-04 Eh
 * total energy  :    -9.5379039 Eh     change       -0.4468239E-05 Eh
 * total energy  :    -9.5379053 Eh     change       -0.1441798E-05 Eh
   *** GEOMETRY OPTIMIZATION CONVERGED AFTER 14 ITERATIONS ***

 final structure:
================
5
 xtb: 6.2.2 (9d81278992624c895f80dd42a50cac0aa55982e2)
C        -0.73474225332070    0.71555904637819    0.46608560414303
C        -0.71440438704384   -0.67821521654109    0.59385562783410
C        -0.34199683660245   -0.76492647425311   -0.75297028349836
N         0.40154322130391    0.29416452001200   -0.22776687134216
H         1.38960025566308    0.43341812440401   -0.07920407713660

          :  Hamiltonian                  GFN2-xTB          :
         :: gradient norm              0.000725512050 Eh/a0 ::
         :: HOMO-LUMO gap              3.243535606083 eV    ::
         :: SCC energy                -9.656033547301 Eh    ::
         :: -> dispersion             -0.002054514001 Eh    ::
         :: repulsion energy           0.118128213910 Eh    ::

    * Orbital Energies and Occupations

         #    Occupation            Energy/Eh            Energy/eV
      -------------------------------------------------------------
         1        2.0000           -0.7418087             -20.1856
         2        2.0000           -0.6528770             -17.7657
         3        2.0000           -0.6431266             -17.5004
         4        2.0000           -0.5944573             -16.1760
         5        2.0000           -0.5308167             -14.4443
         6        2.0000           -0.5197422             -14.1429
         7        2.0000           -0.4600331             -12.5181
         8        2.0000           -0.4276353             -11.6365
         9        2.0000           -0.4114966             -11.1974 (HOMO)
        10                         -0.2922988              -7.9539 (LUMO)
        11                         -0.2865841              -7.7984
        12                         -0.2535421              -6.8992
        13                         -0.0486725              -1.3244
        14                          0.0451933               1.2298
        15                          0.1992478               5.4218
        16                          0.2389447               6.5020
        17                          0.5084318              13.8351
      -------------------------------------------------------------
                  HL-Gap            0.1191977 Eh            3.2435 eV

     #   Z        covCN         q      C6AA      Î±(0)
     1   6 C      2.467    -0.089    30.542     9.021
     2   6 C      2.795    -0.020    28.483     8.743
     3   6 C      2.467    -0.089    30.543     9.022
     4   7 N      3.513     0.029    20.725     6.762
     5   1 H      0.860     0.168     1.282     1.774

Wiberg/Mayer (AO) data.
largest (>0.10) Wiberg bond orders for each atom
          total WBO             WBO to atom ...

molecular dipole:
                 x           y           z       tot (Debye)
 q only:        0.673       0.188      -0.012
   full:        1.310       0.283       0.078       3.411

 projected vibrational frequencies (cm-1)
eigval :       -0.00    -0.00    -0.00     0.00     0.00     0.00
eigval :      536.99   582.10   731.09   852.59   984.90  1082.79
eigval :     1319.06  1432.75  3405.38

   temp. (K)  partition function   enthalpy   heat capacity  entropy
                                   cal/mol     cal/K/mol   cal/K/mol   J/K/mol
  10.00  VIB   1.00                    0.000      0.000     -0.000
         ROT   81.7                   29.809      2.981     11.731
         INT   81.7                   29.809      2.981     11.730
         TR   0.217E+25               49.681      4.968     20.838
         TOT                          79.4904     7.9490    32.5682   136.2652

       T/K    H(0)-H(T)+PV         H(T)/Eh          T*S/Eh         G(T)/Eh
   ------------------------------------------------------------------------
    298.15    0.439297E-02    0.292880E-01    0.291008E-01    0.187138E-03
    120.00    0.152721E-02    0.264222E-01    0.100125E-01    0.164097E-01
    100.00    0.126856E-02    0.261636E-01    0.810809E-02    0.180555E-01
     80.00    0.101365E-02    0.259086E-01    0.625904E-02    0.196496E-01
     60.00    0.760065E-03    0.256551E-01    0.447550E-02    0.211796E-01
     40.00    0.506704E-03    0.254017E-01    0.277827E-02    0.226234E-01
     20.00    0.253352E-03    0.251484E-01    0.121357E-02    0.239348E-01
     10.00    0.126676E-03    0.250217E-01    0.519007E-03    0.245027E-01 (used)
   ------------------------------------------------------------------------

         :::::::::::::::::::::::::::::::::::::::::::::::::::::
         ::                  THERMODYNAMIC                  ::
         :::::::::::::::::::::::::::::::::::::::::::::::::::::
         :: total free energy          -9.513402638571 Eh   ::
         ::.................................................::
         :: total energy               -9.537905307937 Eh   ::
         :: zero point energy           0.024895000214 Eh   ::
         :: G(RRHO) w/o ZPVE           -0.000392330848 Eh   ::
         :: G(RRHO) contrib.            0.024502669366 Eh   ::
         :::::::::::::::::::::::::::::::::::::::::::::::::::::

           -------------------------------------------------
          | TOTAL ENERGY               -9.537905307937 Eh   |
          | TOTAL ENTHALPY             -9.512883631708 Eh   |
          | TOTAL FREE ENERGY          -9.513402638571 Eh   |
          | GRADIENT NORM               0.000725541776 Eh/Î± |
          | HOMO-LUMO GAP               3.243535622986 eV   |
           -------------------------------------------------

 * finished run on 2020/05/12 at 11:45:03.142
