   * xtb version 6.2.2 (9d81278992624c895f80dd42a50cac0aa55982e2) compiled by '@Darwin' on 04/03/2020
          program call               : xtb --input H2C3_2_S_2.input H2C3_2_S_2.xyz --ohess --molden --namespace H2C3_2_S_2 output.out
          number of atoms            :                     5
          number of electrons        :                    14
          charge                     :                     0
          spin                       :                   1.0

   ID    Z sym.   atoms
    1    6 C      1-3
    2    1 H      4, 5

          :  Hamiltonian                  GFN2-xTB          :
 * total energy  :    -7.0448382 Eh     change       -0.1043317E-09 Eh
 * total energy  :    -7.1009176 Eh     change       -0.5607938E-01 Eh
 * total energy  :    -7.1394799 Eh     change       -0.3856233E-01 Eh
 * total energy  :    -7.1604224 Eh     change       -0.2094246E-01 Eh
 * total energy  :    -7.1675357 Eh     change       -0.7113350E-02 Eh
 * total energy  :    -7.1506420 Eh     change        0.1689369E-01 Eh
 * total energy  :    -7.1705092 Eh     change       -0.1986719E-01 Eh
 * total energy  :    -7.1700001 Eh     change        0.5090755E-03 Eh
 * total energy  :    -7.1723455 Eh     change       -0.2345359E-02 Eh
 * total energy  :    -7.1726802 Eh     change       -0.3346847E-03 Eh
 * total energy  :    -7.1731624 Eh     change       -0.4821861E-03 Eh
 * total energy  :    -7.1732931 Eh     change       -0.1307433E-03 Eh
 * total energy  :    -7.1732949 Eh     change       -0.1793003E-05 Eh
 * total energy  :    -7.1732811 Eh     change        0.1385344E-04 Eh
 * total energy  :    -7.1732952 Eh     change       -0.1418472E-04 Eh
 * total energy  :    -7.1732965 Eh     change       -0.1262595E-05 Eh
   *** GEOMETRY OPTIMIZATION CONVERGED AFTER 16 ITERATIONS ***

 final structure:
================
5
 xtb: 6.2.2 (9d81278992624c895f80dd42a50cac0aa55982e2)
C         0.77774674042105   -0.09458689763106   -0.04265734810069
C        -0.56788476361149    0.06862153742569    0.03102883624727
C         1.98609925647969   -0.23929978632211   -0.10760856684836
H        -1.22117922454930   -0.69822149346059   -0.34380041990413
H        -0.97478100873995    0.96348663998807    0.46303849860592

          :  Hamiltonian                  GFN2-xTB          :
         :: gradient norm              0.000750328532 Eh/a0 ::
         :: HOMO-LUMO gap              4.502013620950 eV    ::
         :: SCC energy                -7.351801626026 Eh    ::
         :: -> dispersion             -0.001631298169 Eh    ::
         :: repulsion energy           0.178505105193 Eh    ::

    * Orbital Energies and Occupations

         #    Occupation            Energy/Eh            Energy/eV
      -------------------------------------------------------------
         1        2.0000           -0.6317494             -17.1908
         2        2.0000           -0.6001135             -16.3299
         3        2.0000           -0.5180728             -14.0975
         4        2.0000           -0.5070600             -13.7978
         5        2.0000           -0.4597523             -12.5105
         6        2.0000           -0.4194225             -11.4131
         7        1.0000           -0.3979003             -10.8274
         8        1.0000           -0.3409170              -9.2768 (HOMO)
         9                         -0.1754710              -4.7748 (LUMO)
        10                         -0.1276443              -3.4734
        11                          0.1289516               3.5090
        12                          0.3204905               8.7210
        13                          0.3316248               9.0240
        14                          1.2005985              32.6699
      -------------------------------------------------------------
                  HL-Gap            0.1654460 Eh            4.5020 eV

     #   Z        covCN         q      C6AA      Î±(0)
     1   6 C      1.961     0.010    30.806     8.963
     2   6 C      2.834    -0.078    29.931     8.965
     3   6 C      0.982    -0.075    38.285    10.393
     4   1 H      0.926     0.071     2.070     2.250
     5   1 H      0.926     0.071     2.070     2.250

Wiberg/Mayer (AO) data.
largest (>0.10) Wiberg bond orders for each atom
          total WBO             WBO to atom ...

molecular dipole:
                 x           y           z       tot (Debye)
 q only:       -0.481       0.058       0.026
   full:       -0.479       0.057       0.026       1.228

 projected vibrational frequencies (cm-1)
eigval :       -0.00    -0.00    -0.00    -0.00     0.00     0.00
eigval :      -90.92   367.97   627.33   859.58  1144.50  1348.64
eigval :     2104.61  3104.28  3144.24

   temp. (K)  partition function   enthalpy   heat capacity  entropy
                                   cal/mol     cal/K/mol   cal/K/mol   J/K/mol
  10.00  VIB   1.00                    0.000      0.000     -0.001
         ROT   14.7                   29.809      2.981      8.318
         INT   14.7                   29.809      2.981      8.318
         TR   0.139E+25               49.681      4.968     19.962
         TOT                          79.4904     7.9490    28.2800   118.3233

       T/K    H(0)-H(T)+PV         H(T)/Eh          T*S/Eh         G(T)/Eh
   ------------------------------------------------------------------------
    298.15    0.435756E-02    0.332929E-01    0.270788E-01    0.621411E-02
    120.00    0.154239E-02    0.304777E-01    0.921153E-02    0.212662E-01
    100.00    0.127558E-02    0.302109E-01    0.743323E-02    0.227777E-01
     80.00    0.101569E-02    0.299510E-01    0.571476E-02    0.242362E-01
     60.00    0.760304E-03    0.296956E-01    0.406578E-02    0.256298E-01
     40.00    0.506707E-03    0.294420E-01    0.250494E-02    0.269371E-01
     20.00    0.253352E-03    0.291887E-01    0.107690E-02    0.281118E-01
     10.00    0.126676E-03    0.290620E-01    0.450670E-03    0.286113E-01 (used)
   ------------------------------------------------------------------------

         :::::::::::::::::::::::::::::::::::::::::::::::::::::
         ::                  THERMODYNAMIC                  ::
         :::::::::::::::::::::::::::::::::::::::::::::::::::::
         :: total free energy          -7.144685184475 Eh   ::
         ::.................................................::
         :: total energy               -7.173296501679 Eh   ::
         :: zero point energy           0.028935310883 Eh   ::
         :: G(RRHO) w/o ZPVE           -0.000323993678 Eh   ::
         :: G(RRHO) contrib.            0.028611317204 Eh   ::
         :::::::::::::::::::::::::::::::::::::::::::::::::::::

           -------------------------------------------------
          | TOTAL ENERGY               -7.173296501679 Eh   |
          | TOTAL ENTHALPY             -7.144234514781 Eh   |
          | TOTAL FREE ENERGY          -7.144685184475 Eh   |
          | GRADIENT NORM               0.000750333213 Eh/Î± |
          | HOMO-LUMO GAP               4.502014339225 eV   |
           -------------------------------------------------

 * finished run on 2020/05/12 at 11:44:26.489
