   * xtb version 6.2.2 (9d81278992624c895f80dd42a50cac0aa55982e2) compiled by '@Darwin' on 04/03/2020
          program call               : xtb --input N2_0_S_2.input N2_0_S_2.xyz --ohess --molden --namespace N2_0_S_2 output.out
          number of atoms            :                     2
          number of electrons        :                    10
          charge                     :                     0
          spin                       :                   1.0

   ID    Z sym.   atoms
    1    7 N      1, 2

          :  Hamiltonian                  GFN2-xTB          :
 * total energy  :    -5.5323042 Eh     change       -0.1598721E-13 Eh
 * total energy  :    -5.6019189 Eh     change       -0.6961473E-01 Eh
 * total energy  :    -5.5923076 Eh     change        0.9611362E-02 Eh
 * total energy  :    -5.6055839 Eh     change       -0.1327630E-01 Eh
 * total energy  :    -5.6057953 Eh     change       -0.2114424E-03 Eh
 * total energy  :    -5.6058087 Eh     change       -0.1341644E-04 Eh
 * total energy  :    -5.6058087 Eh     change       -0.1523577E-07 Eh
   *** GEOMETRY OPTIMIZATION CONVERGED AFTER 7 ITERATIONS ***

 final structure:
================
2
 xtb: 6.2.2 (9d81278992624c895f80dd42a50cac0aa55982e2)
N         0.57778739183025    0.00000000000000    0.00000000000000
N        -0.57778739183025   -0.00000000000000    0.00000000000000

          :  Hamiltonian                  GFN2-xTB          :
         :: gradient norm              0.000163374022 Eh/a0 ::
         :: HOMO-LUMO gap              0.000000003408 eV    ::
         :: SCC energy                -5.660975772809 Eh    ::
         :: -> dispersion             -0.000255697086 Eh    ::
         :: repulsion energy           0.055167045626 Eh    ::

    * Orbital Energies and Occupations

         #    Occupation            Energy/Eh            Energy/eV
      -------------------------------------------------------------
         1        2.0000           -0.6990658             -19.0225
Molecule has the following symmetry elements: (i) (Cinf) (C2) 2*(sigma)
It seems to be the Dinfh point group
         2        2.0000           -0.5848225             -15.9138
         3        2.0000           -0.5508396             -14.9891
         4        2.0000           -0.5508396             -14.9891
         5        1.0000           -0.4802206             -13.0675
         6        0.5000           -0.3127830              -8.5113 (HOMO)
         7        0.5000           -0.3127830              -8.5113 (LUMO)
         8                          0.5354281              14.5697
      -------------------------------------------------------------
                  HL-Gap            0.0000000 Eh            0.0000 eV

     #   Z        covCN         q      C6AA      Î±(0)
     1   7 N      0.981    -0.000    20.943     6.584
     2   7 N      0.981     0.000    20.943     6.584

Wiberg/Mayer (AO) data.
largest (>0.10) Wiberg bond orders for each atom
          total WBO             WBO to atom ...

molecular dipole:
                 x           y           z       tot (Debye)
 q only:       -0.000       0.000       0.000
   full:       -0.000       0.000       0.000       0.000

   temp. (K)  partition function   enthalpy   heat capacity  entropy
                                   cal/mol     cal/K/mol   cal/K/mol   J/K/mol
  10.00  VIB   1.00                    0.000      0.000     -0.000
         ROT   1.93                   19.873      1.987      3.292
         INT   1.93                   19.873      1.987      3.292
         TR   0.881E+24               49.681      4.968     19.050
         TOT                          69.5541     6.9554    22.3418    93.4779

       T/K    H(0)-H(T)+PV         H(T)/Eh          T*S/Eh         G(T)/Eh
   ------------------------------------------------------------------------
    298.15    0.330506E-02    0.817524E-02    0.218314E-01   -0.136561E-01
    120.00    0.133010E-02    0.620028E-02    0.757648E-02   -0.137620E-02
    100.00    0.110842E-02    0.597860E-02    0.611171E-02   -0.133119E-03
     80.00    0.886732E-03    0.575691E-02    0.469157E-02    0.106534E-02
     60.00    0.665049E-03    0.553523E-02    0.332742E-02    0.220781E-02
     40.00    0.443366E-03    0.531355E-02    0.203858E-02    0.327497E-02
     20.00    0.221683E-03    0.509186E-02    0.865682E-03    0.422618E-02
     10.00    0.110842E-03    0.498102E-02    0.356038E-03    0.462498E-02 (used)
   ------------------------------------------------------------------------

         :::::::::::::::::::::::::::::::::::::::::::::::::::::
         ::                  THERMODYNAMIC                  ::
         :::::::::::::::::::::::::::::::::::::::::::::::::::::
         :: total free energy          -5.601183743690 Eh   ::
         ::.................................................::
         :: total energy               -5.605808727203 Eh   ::
         :: zero point energy           0.004870180484 Eh   ::
         :: G(RRHO) w/o ZPVE           -0.000245196971 Eh   ::
         :: G(RRHO) contrib.            0.004624983513 Eh   ::
         :::::::::::::::::::::::::::::::::::::::::::::::::::::

           -------------------------------------------------
          | TOTAL ENERGY               -5.605808727203 Eh   |
          | TOTAL ENTHALPY             -5.600827705206 Eh   |
          | TOTAL FREE ENERGY          -5.601183743690 Eh   |
          | GRADIENT NORM               0.000163384800 Eh/Î± |
          | HOMO-LUMO GAP               0.000000002678 eV   |
           -------------------------------------------------

 * finished run on 2020/05/13 at 16:22:22.384
