   * xtb version 6.2.2 (9d81278992624c895f80dd42a50cac0aa55982e2) compiled by '@Darwin' on 04/03/2020
          program call               : xtb --input C3N1_6_S_3.input C3N1_6_S_3.xyz --ohess --molden --namespace C3N1_6_S_3 output.out
          number of atoms            :                     4
          number of electrons        :                    17
          charge                     :                     0
          spin                       :                   1.5

   ID    Z sym.   atoms
    1    7 N      1
    2    6 C      2-4

          :  Hamiltonian                  GFN2-xTB          :
 * total energy  :    -8.8288441 Eh     change       -0.5351133E-09 Eh
 * total energy  :    -8.8930347 Eh     change       -0.6419063E-01 Eh
 * total energy  :    -8.9077186 Eh     change       -0.1468390E-01 Eh
 * total energy  :    -8.9237926 Eh     change       -0.1607398E-01 Eh
 * total energy  :    -8.9268873 Eh     change       -0.3094748E-02 Eh
 * total energy  :    -8.9288695 Eh     change       -0.1982174E-02 Eh
 * total energy  :    -8.9296261 Eh     change       -0.7565978E-03 Eh
 * total energy  :    -8.9299434 Eh     change       -0.3172870E-03 Eh
 * total energy  :    -8.9300191 Eh     change       -0.7573377E-04 Eh
 * total energy  :    -8.9300455 Eh     change       -0.2633927E-04 Eh
 * total energy  :    -8.9300465 Eh     change       -0.1079712E-05 Eh
 * total energy  :    -8.9300469 Eh     change       -0.3949518E-06 Eh
   *** GEOMETRY OPTIMIZATION CONVERGED AFTER 12 ITERATIONS ***

 final structure:
================
4
 xtb: 6.2.2 (9d81278992624c895f80dd42a50cac0aa55982e2)
N         1.56274363129035   -0.03440647615072    0.02098464030700
C         0.33900757866108   -0.00744164162751    0.00370261486447
C        -0.93610503205538    0.70243543694670    0.00508894080575
C        -0.96564617789606   -0.66058731916847   -0.02977719597722

          :  Hamiltonian                  GFN2-xTB          :
         :: gradient norm              0.000188997607 Eh/a0 ::
         :: HOMO-LUMO gap              1.744066436245 eV    ::
         :: SCC energy                -9.071258094983 Eh    ::
         :: -> dispersion             -0.001734378654 Eh    ::
         :: repulsion energy           0.141211158675 Eh    ::

    * Orbital Energies and Occupations

         #    Occupation            Energy/Eh            Energy/eV
      -------------------------------------------------------------
         1        2.0000           -0.7343018             -19.9814
         2        2.0000           -0.6882353             -18.7278
         3        2.0000           -0.5982650             -16.2796
         4        2.0000           -0.5711357             -15.5414
         5        2.0000           -0.5662102             -15.4074
         6        2.0000           -0.4941398             -13.4462
         7        1.9107           -0.4780564             -13.0086
         8        1.0893           -0.4736429             -12.8885
         9        1.0000           -0.4424459             -12.0396
        10        1.0000           -0.3733637             -10.1597 (HOMO)
        11                         -0.3092698              -8.4157 (LUMO)
        12                         -0.2482432              -6.7550
        13                         -0.0358585              -0.9758
        14                          0.0780835               2.1248
        15                          0.3859939              10.5034
        16                          0.7492276              20.3875
      -------------------------------------------------------------
                  HL-Gap            0.0640940 Eh            1.7441 eV

     #   Z        covCN         q      C6AA      Î±(0)
     1   7 N      0.911    -0.184    24.996     7.231
     2   6 C      2.868     0.195    23.856     8.006
     3   6 C      1.959    -0.005    31.213     9.022
     4   6 C      1.959    -0.005    31.213     9.022

Wiberg/Mayer (AO) data.
largest (>0.10) Wiberg bond orders for each atom
          total WBO             WBO to atom ...

molecular dipole:
                 x           y           z       tot (Debye)
 q only:       -0.401       0.009      -0.006
   full:       -0.451       0.010      -0.007       1.146

 projected vibrational frequencies (cm-1)
eigval :       -0.00    -0.00    -0.00     0.00     0.00     0.00
eigval :      232.15   384.72   671.47   912.94  1488.25  1744.08

   temp. (K)  partition function   enthalpy   heat capacity  entropy
                                   cal/mol     cal/K/mol   cal/K/mol   J/K/mol
  10.00  VIB   1.00                    0.000      0.000     -0.004
         ROT   49.0                   29.809      2.981     10.715
         INT   49.0                   29.809      2.981     10.711
         TR   0.210E+25               49.681      4.968     20.778
         TOT                          79.4904     7.9490    31.4896   131.7526

       T/K    H(0)-H(T)+PV         H(T)/Eh          T*S/Eh         G(T)/Eh
   ------------------------------------------------------------------------
    298.15    0.479644E-02    0.171751E-01    0.293852E-01   -0.122101E-01
    120.00    0.160844E-02    0.139871E-01    0.991548E-02    0.407163E-02
    100.00    0.131276E-02    0.136914E-01    0.799362E-02    0.569781E-02
     80.00    0.103168E-02    0.134103E-01    0.614429E-02    0.726606E-02
     60.00    0.764288E-03    0.131430E-01    0.437773E-02    0.876523E-02
     40.00    0.506956E-03    0.128856E-01    0.271000E-02    0.101756E-01
     20.00    0.253352E-03    0.126320E-01    0.117925E-02    0.114528E-01
     10.00    0.126676E-03    0.125053E-01    0.501819E-03    0.120035E-01 (used)
   ------------------------------------------------------------------------

         :::::::::::::::::::::::::::::::::::::::::::::::::::::
         ::                  THERMODYNAMIC                  ::
         :::::::::::::::::::::::::::::::::::::::::::::::::::::
         :: total free energy          -8.918043400826 Eh   ::
         ::.................................................::
         :: total energy               -8.930046927787 Eh   ::
         :: zero point energy           0.012378670246 Eh   ::
         :: G(RRHO) w/o ZPVE           -0.000375143284 Eh   ::
         :: G(RRHO) contrib.            0.012003526961 Eh   ::
         :::::::::::::::::::::::::::::::::::::::::::::::::::::

           -------------------------------------------------
          | TOTAL ENERGY               -8.930046927787 Eh   |
          | TOTAL ENTHALPY             -8.917541581526 Eh   |
          | TOTAL FREE ENERGY          -8.918043400826 Eh   |
          | GRADIENT NORM               0.000187768728 Eh/Î± |
          | HOMO-LUMO GAP               1.744085366342 eV   |
           -------------------------------------------------

 * finished run on 2020/05/12 at 11:45:05.872
