   * xtb version 6.2.2 (9d81278992624c895f80dd42a50cac0aa55982e2) compiled by '@Darwin' on 04/03/2020
          program call               : xtb --input C2O1_0_S_2.input C2O1_0_S_2.xyz --ohess --molden --namespace C2O1_0_S_2 output.out
          number of atoms            :                     3
          number of electrons        :                    14
          charge                     :                     0
          spin                       :                   1.0

   ID    Z sym.   atoms
    1    6 C      1, 2
    2    8 O      3

          :  Hamiltonian                  GFN2-xTB          :
 * total energy  :    -7.9947469 Eh     change        0.2793943E-09 Eh
 * total energy  :    -8.0800933 Eh     change       -0.8534639E-01 Eh
 * total energy  :    -8.1017062 Eh     change       -0.2161293E-01 Eh
 * total energy  :    -8.1134706 Eh     change       -0.1176437E-01 Eh
 * total energy  :    -8.1191289 Eh     change       -0.5658314E-02 Eh
 * total energy  :    -8.1200467 Eh     change       -0.9177936E-03 Eh
 * total energy  :    -8.1208750 Eh     change       -0.8283400E-03 Eh
 * total energy  :    -8.1210681 Eh     change       -0.1930781E-03 Eh
 * total energy  :    -8.1211177 Eh     change       -0.4961528E-04 Eh
 * total energy  :    -8.1211194 Eh     change       -0.1651957E-05 Eh
 * total energy  :    -8.1211213 Eh     change       -0.1905475E-05 Eh
   *** GEOMETRY OPTIMIZATION CONVERGED AFTER 11 ITERATIONS ***

 final structure:
================
3
 xtb: 6.2.2 (9d81278992624c895f80dd42a50cac0aa55982e2)
C        -0.05157336396721   -0.00016928438599    0.00000000000000
C         1.26687260853871    0.00338934275730    0.00000000000000
O        -1.21529924457149   -0.00322005837131    0.00000000000000

          :  Hamiltonian                  GFN2-xTB          :
         :: gradient norm              0.000374786518 Eh/a0 ::
         :: HOMO-LUMO gap              5.720147928449 eV    ::
         :: SCC energy                -8.226548516909 Eh    ::
         :: -> dispersion             -0.000841081665 Eh    ::
         :: repulsion energy           0.105427258188 Eh    ::

    * Orbital Energies and Occupations

         #    Occupation            Energy/Eh            Energy/eV
      -------------------------------------------------------------
         1        2.0000           -0.8000992             -21.7718
         2        2.0000           -0.7011950             -19.0805
         3        2.0000           -0.6300317             -17.1440
         4        2.0000           -0.6250478             -17.0084
         5        2.0000           -0.6250477             -17.0084
         6        2.0000           -0.4719330             -12.8420
         7        1.0000           -0.4326193             -11.7722
         8        1.0000           -0.4326193             -11.7722 (HOMO)
         9                         -0.2224078              -6.0520 (LUMO)
        10                         -0.2224077              -6.0520
        11                          0.2166806               5.8962
        12                          1.0459710              28.4623
      -------------------------------------------------------------
                  HL-Gap            0.2102116 Eh            5.7201 eV

     #   Z        covCN         q      C6AA      Î±(0)
     1   6 C      1.836     0.292    24.537     8.002
     2   6 C      0.981    -0.156    41.018    10.757
     3   8 O      0.856    -0.136    17.062     5.538

Wiberg/Mayer (AO) data.
largest (>0.10) Wiberg bond orders for each atom
          total WBO             WBO to atom ...

molecular dipole:
                 x           y           z       tot (Debye)
 q only:       -0.088      -0.000       0.000
   full:       -0.490      -0.001       0.000       1.245

   temp. (K)  partition function   enthalpy   heat capacity  entropy
                                   cal/mol     cal/K/mol   cal/K/mol   J/K/mol
  10.00  VIB   1.00                    0.000      0.000     -0.004
         ROT   17.5                   19.873      1.987      7.671
         INT   17.5                   19.873      1.987      7.666
         TR   0.150E+25               49.681      4.968     20.113
         TOT                          69.5541     6.9554    27.7793   116.2284

       T/K    H(0)-H(T)+PV         H(T)/Eh          T*S/Eh         G(T)/Eh
   ------------------------------------------------------------------------
    298.15    0.428408E-02    0.130599E-01    0.260590E-01   -0.129991E-01
    120.00    0.144680E-02    0.102226E-01    0.877176E-02    0.145085E-02
    100.00    0.117061E-02    0.994642E-02    0.705829E-02    0.288812E-02
     80.00    0.911377E-03    0.968718E-02    0.541558E-02    0.427160E-02
     60.00    0.670415E-03    0.944622E-02    0.385410E-02    0.559212E-02
     40.00    0.443624E-03    0.921942E-02    0.238574E-02    0.683369E-02
     20.00    0.221683E-03    0.899748E-02    0.103905E-02    0.795843E-02
     10.00    0.110842E-03    0.888664E-02    0.442691E-03    0.844395E-02 (used)
   ------------------------------------------------------------------------

         :::::::::::::::::::::::::::::::::::::::::::::::::::::
         ::                  THERMODYNAMIC                  ::
         :::::::::::::::::::::::::::::::::::::::::::::::::::::
         :: total free energy          -8.112677310521 Eh   ::
         ::.................................................::
         :: total energy               -8.121121261827 Eh   ::
         :: zero point energy           0.008775800465 Eh   ::
         :: G(RRHO) w/o ZPVE           -0.000331849159 Eh   ::
         :: G(RRHO) contrib.            0.008443951307 Eh   ::
         :::::::::::::::::::::::::::::::::::::::::::::::::::::

           -------------------------------------------------
          | TOTAL ENERGY               -8.121121261827 Eh   |
          | TOTAL ENTHALPY             -8.112234619849 Eh   |
          | TOTAL FREE ENERGY          -8.112677310521 Eh   |
          | GRADIENT NORM               0.000374672258 Eh/Î± |
          | HOMO-LUMO GAP               5.720148300309 eV   |
           -------------------------------------------------

 * finished run on 2020/05/12 at 11:43:50.664
