   * xtb version 6.2.2 (9d81278992624c895f80dd42a50cac0aa55982e2) compiled by '@Darwin' on 04/03/2020
          program call               : xtb --input N1O2_2_S_3.input N1O2_2_S_3.xyz --ohess --molden --namespace N1O2_2_S_3 output.out
          number of atoms            :                     3
          number of electrons        :                    17
          charge                     :                     0
          spin                       :                   1.5

   ID    Z sym.   atoms
    1    7 N      1
    2    8 O      2, 3

          :  Hamiltonian                  GFN2-xTB          :
 * total energy  :   -10.4677038 Eh     change        0.7727152E-11 Eh
 * total energy  :   -10.5768256 Eh     change       -0.1091218E+00 Eh
 * total energy  :   -10.6334639 Eh     change       -0.5663833E-01 Eh
 * total energy  :   -10.6527659 Eh     change       -0.1930196E-01 Eh
 * total energy  :   -10.7070742 Eh     change       -0.5430831E-01 Eh
 * total energy  :   -10.7249323 Eh     change       -0.1785805E-01 Eh
 * total energy  :   -10.7280466 Eh     change       -0.3114335E-02 Eh
 * total energy  :   -10.7299367 Eh     change       -0.1890138E-02 Eh
 * total energy  :   -10.7299413 Eh     change       -0.4619094E-05 Eh
 * total energy  :   -10.7299425 Eh     change       -0.1105246E-05 Eh
   *** GEOMETRY OPTIMIZATION CONVERGED AFTER 10 ITERATIONS ***

 final structure:
================
3
 xtb: 6.2.2 (9d81278992624c895f80dd42a50cac0aa55982e2)
N        -0.25985252378325   -0.35339094654621    0.00000000000000
O        -0.74586150477019    0.82067207787121   -0.00000000000000
O         1.00571302855344   -0.46728013132499    0.00000000000000

          :  Hamiltonian                  GFN2-xTB          :
         :: gradient norm              0.000147593672 Eh/a0 ::
         :: HOMO-LUMO gap             11.471697506782 eV    ::
         :: SCC energy               -10.750716290055 Eh    ::
         :: -> dispersion             -0.000646541238 Eh    ::
         :: repulsion energy           0.020773837227 Eh    ::

    * Orbital Energies and Occupations

         #    Occupation            Energy/Eh            Energy/eV
      -------------------------------------------------------------
         1        2.0000           -0.8117783             -22.0896
         2        2.0000           -0.7881527             -21.4467
         3        2.0000           -0.6918195             -18.8254
         4        2.0000           -0.6540413             -17.7974
         5        2.0000           -0.6454893             -17.5647
         6        2.0000           -0.6372904             -17.3416
         7        2.0000           -0.5503549             -14.9759
         8        1.0000           -0.5268053             -14.3351
         9        1.0000           -0.4492357             -12.2243
        10        1.0000           -0.3670624              -9.9883 (HOMO)
        11                          0.0545147               1.4834 (LUMO)
        12                          0.1720486               4.6817
      -------------------------------------------------------------
                  HL-Gap            0.4215771 Eh           11.4717 eV

     #   Z        covCN         q      C6AA      Î±(0)
     1   7 N      1.844     0.270    17.464     6.193
     2   8 O      0.923    -0.135    17.019     5.532
     3   8 O      0.923    -0.135    17.019     5.532

Wiberg/Mayer (AO) data.
largest (>0.10) Wiberg bond orders for each atom
          total WBO             WBO to atom ...

molecular dipole:
                 x           y           z       tot (Debye)
 q only:       -0.199      -0.271       0.000
   full:       -0.208      -0.282       0.000       0.890

 projected vibrational frequencies (cm-1)
eigval :       -0.00    -0.00    -0.00     0.00     0.00     0.00
eigval :      472.59  1278.65  1345.15

   temp. (K)  partition function   enthalpy   heat capacity  entropy
                                   cal/mol     cal/K/mol   cal/K/mol   J/K/mol
  10.00  VIB   1.00                    0.000      0.000     -0.000
         ROT   19.2                   29.809      2.981      8.854
         INT   19.2                   29.809      2.981      8.854
         TR   0.185E+25               49.681      4.968     20.528
         TOT                          79.4904     7.9490    29.3817   122.9332

       T/K    H(0)-H(T)+PV         H(T)/Eh          T*S/Eh         G(T)/Eh
   ------------------------------------------------------------------------
    298.15    0.404355E-02    0.110976E-01    0.271508E-01   -0.160532E-01
    120.00    0.152759E-02    0.858168E-02    0.940377E-02   -0.822090E-03
    100.00    0.126916E-02    0.832326E-02    0.760101E-02    0.722243E-03
     80.00    0.101385E-02    0.806794E-02    0.585303E-02    0.221491E-02
     60.00    0.760082E-03    0.781417E-02    0.417084E-02    0.364334E-02
     40.00    0.506704E-03    0.756080E-02    0.257515E-02    0.498565E-02
     20.00    0.253352E-03    0.730744E-02    0.111202E-02    0.619543E-02
     10.00    0.126676E-03    0.718077E-02    0.468228E-03    0.671254E-02 (used)
   ------------------------------------------------------------------------

         :::::::::::::::::::::::::::::::::::::::::::::::::::::
         ::                  THERMODYNAMIC                  ::
         :::::::::::::::::::::::::::::::::::::::::::::::::::::
         :: total free energy         -10.723229911910 Eh   ::
         ::.................................................::
         :: total energy              -10.729942452852 Eh   ::
         :: zero point energy           0.007054092693 Eh   ::
         :: G(RRHO) w/o ZPVE           -0.000341551751 Eh   ::
         :: G(RRHO) contrib.            0.006712540942 Eh   ::
         :::::::::::::::::::::::::::::::::::::::::::::::::::::

           -------------------------------------------------
          | TOTAL ENERGY              -10.729942452852 Eh   |
          | TOTAL ENTHALPY            -10.722761684143 Eh   |
          | TOTAL FREE ENERGY         -10.723229911910 Eh   |
          | GRADIENT NORM               0.000147606613 Eh/Î± |
          | HOMO-LUMO GAP              11.471697403028 eV   |
           -------------------------------------------------

 * finished run on 2020/05/12 at 11:45:16.992
