   * xtb version 6.2.2 (9d81278992624c895f80dd42a50cac0aa55982e2) compiled by '@Darwin' on 04/03/2020
          program call               : xtb --input H2C1N2_1_S_2.input H2C1N2_1_S_2.xyz --ohess --molden --namespace H2C1N2_1_S_2 output.out
          number of atoms            :                     5
          number of electrons        :                    16
          charge                     :                     0
          spin                       :                   1.0

   ID    Z sym.   atoms
    1    7 N      1, 3
    2    6 C      2
    3    1 H      4, 5

          :  Hamiltonian                  GFN2-xTB          :
 * total energy  :    -8.6638409 Eh     change        0.4025029E-09 Eh
 * total energy  :    -8.6827695 Eh     change       -0.1892864E-01 Eh
 * total energy  :    -8.6857362 Eh     change       -0.2966632E-02 Eh
 * total energy  :    -8.7131625 Eh     change       -0.2742632E-01 Eh
 * total energy  :    -8.7232237 Eh     change       -0.1006126E-01 Eh
 * total energy  :    -8.7299801 Eh     change       -0.6756343E-02 Eh
 * total energy  :    -8.7341352 Eh     change       -0.4155112E-02 Eh
 * total energy  :    -8.7373562 Eh     change       -0.3220985E-02 Eh
 * total energy  :    -8.7411918 Eh     change       -0.3835599E-02 Eh
 * total energy  :    -8.7417292 Eh     change       -0.5373955E-03 Eh
 * total energy  :    -8.7447547 Eh     change       -0.3025546E-02 Eh
 * total energy  :    -8.7453926 Eh     change       -0.6378849E-03 Eh
 * total energy  :    -8.7459099 Eh     change       -0.5173321E-03 Eh
 * total energy  :    -8.7460886 Eh     change       -0.1786132E-03 Eh
 * total energy  :    -8.7462894 Eh     change       -0.2008422E-03 Eh
 * total energy  :    -8.7463393 Eh     change       -0.4988837E-04 Eh
 * total energy  :    -8.7463483 Eh     change       -0.8987725E-05 Eh
 * total energy  :    -8.7463491 Eh     change       -0.8243215E-06 Eh
   *** GEOMETRY OPTIMIZATION CONVERGED AFTER 18 ITERATIONS ***

 final structure:
================
5
 xtb: 6.2.2 (9d81278992624c895f80dd42a50cac0aa55982e2)
N        -0.37981258570360    0.25321210511992    0.08993268212298
C         0.94284170077965    0.13482065924555    0.15660689245959
N        -1.02183024449012   -0.68047410161533   -0.43574083396990
H        -0.83907779718462    1.09905968950462    0.46688816621753
H         1.29787892659870   -0.80661935225475   -0.27768590683020

          :  Hamiltonian                  GFN2-xTB          :
         :: gradient norm              0.000575772685 Eh/a0 ::
         :: HOMO-LUMO gap              2.640436920851 eV    ::
         :: SCC energy                -8.831174399390 Eh    ::
         :: -> dispersion             -0.001449531041 Eh    ::
         :: repulsion energy           0.084825274240 Eh    ::

    * Orbital Energies and Occupations

         #    Occupation            Energy/Eh            Energy/eV
      -------------------------------------------------------------
         1        2.0000           -0.7113867             -19.3578
         2        2.0000           -0.6554252             -17.8350
         3        2.0000           -0.6280392             -17.0898
         4        2.0000           -0.5679878             -15.4557
         5        2.0000           -0.5203206             -14.1586
         6        2.0000           -0.4695131             -12.7761
         7        2.0000           -0.4018427             -10.9347
         8        1.0000           -0.3786921             -10.3047
         9        1.0000           -0.3583610              -9.7515 (HOMO)
        10                         -0.2613269              -7.1111 (LUMO)
        11                          0.0118550               0.3226
        12                          0.1568412               4.2679
        13                          0.3162371               8.6052
        14                          0.3735887              10.1659
      -------------------------------------------------------------
                  HL-Gap            0.0970342 Eh            2.6404 eV

     #   Z        covCN         q      C6AA      Î±(0)
     1   7 N      2.749     0.167    18.450     6.380
     2   6 C      1.904    -0.141    35.103     9.569
     3   7 N      1.051    -0.266    26.091     7.312
     4   1 H      0.859     0.163     1.319     1.799
     5   1 H      0.924     0.078     2.002     2.213

Wiberg/Mayer (AO) data.
largest (>0.10) Wiberg bond orders for each atom
          total WBO             WBO to atom ...

molecular dipole:
                 x           y           z       tot (Debye)
 q only:        0.074       0.604       0.308
   full:       -0.079       0.672       0.327       1.909

 projected vibrational frequencies (cm-1)
eigval :       -0.00    -0.00    -0.00     0.00     0.00     0.00
eigval :      530.92   648.65   874.79  1058.44  1252.56  1347.75
eigval :     1384.60  2912.45  3026.98

   temp. (K)  partition function   enthalpy   heat capacity  entropy
                                   cal/mol     cal/K/mol   cal/K/mol   J/K/mol
  10.00  VIB   1.00                    0.000      0.000     -0.000
         ROT   48.0                   29.809      2.981     10.673
         INT   48.0                   29.809      2.981     10.672
         TR   0.162E+25               49.681      4.968     20.259
         TOT                          79.4904     7.9490    30.9319   129.4191

       T/K    H(0)-H(T)+PV         H(T)/Eh          T*S/Eh         G(T)/Eh
   ------------------------------------------------------------------------
    298.15    0.423361E-02    0.339344E-01    0.281148E-01    0.581963E-02
    120.00    0.152565E-02    0.312264E-01    0.969778E-02    0.215286E-01
    100.00    0.126820E-02    0.309690E-01    0.784692E-02    0.231221E-01
     80.00    0.101361E-02    0.307144E-01    0.605038E-02    0.246640E-01
     60.00    0.760064E-03    0.304608E-01    0.431904E-02    0.261418E-01
     40.00    0.506704E-03    0.302075E-01    0.267396E-02    0.275335E-01
     20.00    0.253352E-03    0.299541E-01    0.116142E-02    0.287927E-01
     10.00    0.126676E-03    0.298275E-01    0.492931E-03    0.293345E-01 (used)
   ------------------------------------------------------------------------

         :::::::::::::::::::::::::::::::::::::::::::::::::::::
         ::                  THERMODYNAMIC                  ::
         :::::::::::::::::::::::::::::::::::::::::::::::::::::
         :: total free energy          -8.717014572297 Eh   ::
         ::.................................................::
         :: total energy               -8.746349098422 Eh   ::
         :: zero point energy           0.029700781420 Eh   ::
         :: G(RRHO) w/o ZPVE           -0.000366255295 Eh   ::
         :: G(RRHO) contrib.            0.029334526125 Eh   ::
         :::::::::::::::::::::::::::::::::::::::::::::::::::::

           -------------------------------------------------
          | TOTAL ENERGY               -8.746349098422 Eh   |
          | TOTAL ENTHALPY             -8.716521640987 Eh   |
          | TOTAL FREE ENERGY          -8.717014572297 Eh   |
          | GRADIENT NORM               0.000576350528 Eh/Î± |
          | HOMO-LUMO GAP               2.640434004195 eV   |
           -------------------------------------------------

 * finished run on 2020/05/12 at 11:45:20.534
