   * xtb version 6.2.2 (9d81278992624c895f80dd42a50cac0aa55982e2) compiled by '@Darwin' on 04/03/2020
          program call               : xtb --input H1C3N1_6_S_0.input H1C3N1_6_S_0.xyz --ohess --molden --namespace H1C3N1_6_S_0 output.out
          number of atoms            :                     5
          number of electrons        :                    18
          charge                     :                     0
          spin                       :                   0.0

   ID    Z sym.   atoms
    1    6 C      1-3
    2    7 N      4
    3    1 H      5

          :  Hamiltonian                  GFN2-xTB          :
 * total energy  :    -9.4127544 Eh     change       -0.4960654E-10 Eh
 * total energy  :    -9.5514253 Eh     change       -0.1386709E+00 Eh
 * total energy  :    -9.5344941 Eh     change        0.1693118E-01 Eh
 * total energy  :    -9.5987635 Eh     change       -0.6426942E-01 Eh
 * total energy  :    -9.6016411 Eh     change       -0.2877605E-02 Eh
 * total energy  :    -9.6187522 Eh     change       -0.1711106E-01 Eh
 * total energy  :    -9.6189568 Eh     change       -0.2046028E-03 Eh
 * total energy  :    -9.6279190 Eh     change       -0.8962215E-02 Eh
 * total energy  :    -9.6248095 Eh     change        0.3109482E-02 Eh
 * total energy  :    -9.6302391 Eh     change       -0.5429595E-02 Eh
 * total energy  :    -9.6314510 Eh     change       -0.1211884E-02 Eh
 * total energy  :    -9.6323249 Eh     change       -0.8738890E-03 Eh
 * total energy  :    -9.6326017 Eh     change       -0.2767687E-03 Eh
 * total energy  :    -9.6327423 Eh     change       -0.1406654E-03 Eh
 * total energy  :    -9.6327887 Eh     change       -0.4637780E-04 Eh
 * total energy  :    -9.6327950 Eh     change       -0.6303505E-05 Eh
 * total energy  :    -9.6328013 Eh     change       -0.6255838E-05 Eh
 * total energy  :    -9.6328035 Eh     change       -0.2221481E-05 Eh
   *** GEOMETRY OPTIMIZATION CONVERGED AFTER 18 ITERATIONS ***

 final structure:
================
5
 xtb: 6.2.2 (9d81278992624c895f80dd42a50cac0aa55982e2)
C        -1.23899339466356    1.09374939496745    0.36032344510599
C        -0.53157140544126    0.05496456463312    0.04761072602468
C         0.86304704420554   -0.09920738569550   -0.08027820650290
N         1.99850249908406   -0.19036900485365   -0.17699382539747
H        -1.09098374318479   -0.85913856905143   -0.15066213923029

          :  Hamiltonian                  GFN2-xTB          :
         :: gradient norm              0.000303142661 Eh/a0 ::
         :: HOMO-LUMO gap              2.256142811368 eV    ::
         :: SCC energy                -9.844013979805 Eh    ::
         :: -> dispersion             -0.002101023450 Eh    ::
         :: repulsion energy           0.211210437796 Eh    ::

    * Orbital Energies and Occupations

         #    Occupation            Energy/Eh            Energy/eV
      -------------------------------------------------------------
         1        2.0000           -0.6855272             -18.6541
         2        2.0000           -0.6745543             -18.3556
         3        2.0000           -0.6202756             -16.8786
         4        2.0000           -0.5712840             -15.5454
         5        2.0000           -0.5318469             -14.4723
         6        2.0000           -0.5095470             -13.8655
         7        2.0000           -0.4684264             -12.7465
         8        2.0000           -0.4624785             -12.5847
         9        2.0000           -0.4442157             -12.0877 (HOMO)
        10                         -0.3613040              -9.8316 (LUMO)
        11                         -0.2974663              -8.0945
        12                         -0.2358353              -6.4174
        13                         -0.1608867              -4.3779
        14                          0.1177634               3.2045
        15                          0.2326433               6.3305
        16                          0.6150622              16.7367
        17                          1.1575536              31.4986
      -------------------------------------------------------------
                  HL-Gap            0.0829117 Eh            2.2561 eV

     #   Z        covCN         q      C6AA      Î±(0)
     1   6 C      0.988    -0.107    39.394    10.546
     2   6 C      2.886     0.005    27.908     8.661
     3   6 C      1.898     0.141    27.682     8.497
     4   7 N      0.911    -0.191    25.153     7.253
     5   1 H      0.925     0.153     1.373     1.832

Wiberg/Mayer (AO) data.
largest (>0.10) Wiberg bond orders for each atom
          total WBO             WBO to atom ...

molecular dipole:
                 x           y           z       tot (Debye)
 q only:       -0.562      -0.427      -0.073
   full:       -0.758      -0.788      -0.153       2.807

 projected vibrational frequencies (cm-1)
eigval :       -0.00    -0.00    -0.00    -0.00     0.00     0.00
eigval :      151.67   363.04   379.47   664.08   860.04   956.98
eigval :     1723.31  2380.57  2949.12

   temp. (K)  partition function   enthalpy   heat capacity  entropy
                                   cal/mol     cal/K/mol   cal/K/mol   J/K/mol
  10.00  VIB   1.00                    0.000      0.000     -0.012
         ROT   114.                   29.809      2.981     12.391
         INT   114.                   29.809      2.981     12.379
         TR   0.217E+25               49.681      4.968     20.838
         TOT                          79.4904     7.9490    33.2165   138.9778

       T/K    H(0)-H(T)+PV         H(T)/Eh          T*S/Eh         G(T)/Eh
   ------------------------------------------------------------------------
    298.15    0.533051E-02    0.290879E-01    0.311869E-01   -0.209900E-02
    120.00    0.169524E-02    0.254526E-01    0.103833E-01    0.150694E-01
    100.00    0.137120E-02    0.251286E-01    0.835779E-02    0.167708E-01
     80.00    0.106606E-02    0.248234E-01    0.641431E-02    0.184091E-01
     60.00    0.779212E-03    0.245366E-01    0.456356E-02    0.199730E-01
     40.00    0.509675E-03    0.242671E-01    0.282414E-02    0.214429E-01
     20.00    0.253365E-03    0.240107E-01    0.123452E-02    0.227762E-01
     10.00    0.126676E-03    0.238841E-01    0.529338E-03    0.233547E-01 (used)
   ------------------------------------------------------------------------

         :::::::::::::::::::::::::::::::::::::::::::::::::::::
         ::                  THERMODYNAMIC                  ::
         :::::::::::::::::::::::::::::::::::::::::::::::::::::
         :: total free energy          -9.609448769668 Eh   ::
         ::.................................................::
         :: total energy               -9.632803491410 Eh   ::
         :: zero point energy           0.023757384123 Eh   ::
         :: G(RRHO) w/o ZPVE           -0.000402662381 Eh   ::
         :: G(RRHO) contrib.            0.023354721742 Eh   ::
         :::::::::::::::::::::::::::::::::::::::::::::::::::::

           -------------------------------------------------
          | TOTAL ENERGY               -9.632803491410 Eh   |
          | TOTAL ENTHALPY             -9.608919431271 Eh   |
          | TOTAL FREE ENERGY          -9.609448769668 Eh   |
          | GRADIENT NORM               0.000303293448 Eh/Î± |
          | HOMO-LUMO GAP               2.256143131682 eV   |
           -------------------------------------------------

 * finished run on 2020/05/12 at 11:44:52.567
