   * xtb version 6.2.2 (9d81278992624c895f80dd42a50cac0aa55982e2) compiled by '@Darwin' on 04/03/2020
          program call               : xtb --input H2C1O1_0_S_0.input H2C1O1_0_S_0.xyz --ohess --molden --namespace H2C1O1_0_S_0 output.out
          number of atoms            :                     4
          number of electrons        :                    12
          charge                     :                     0
          spin                       :                   0.0

   ID    Z sym.   atoms
    1    8 O      1
    2    6 C      2
    3    1 H      3, 4

          :  Hamiltonian                  GFN2-xTB          :
 * total energy  :    -7.0856880 Eh     change        0.2819931E-09 Eh
 * total energy  :    -7.0919159 Eh     change       -0.6227939E-02 Eh
 * total energy  :    -7.0930882 Eh     change       -0.1172228E-02 Eh
 * total energy  :    -7.0931735 Eh     change       -0.8534527E-04 Eh
 * total energy  :    -7.0931774 Eh     change       -0.3930445E-05 Eh
   *** GEOMETRY OPTIMIZATION CONVERGED AFTER 5 ITERATIONS ***

 final structure:
================
4
 xtb: 6.2.2 (9d81278992624c895f80dd42a50cac0aa55982e2)
O        -0.53151867188266   -0.32095865494901    0.14653827075910
C         0.50633295156357    0.39954385014628   -0.18034818099687
H        -1.36477259637443    0.14892280318207   -0.04642708212892
H         1.38995931669352   -0.22750799837934    0.08023699236669

          :  Hamiltonian                  GFN2-xTB          :
         :: gradient norm              0.000427534178 Eh/a0 ::
         :: HOMO-LUMO gap              2.077939375122 eV    ::
         :: SCC energy                -7.138488982544 Eh    ::
         :: -> dispersion             -0.000640767475 Eh    ::
         :: repulsion energy           0.045311548070 Eh    ::

    * Orbital Energies and Occupations

         #    Occupation            Energy/Eh            Energy/eV
      -------------------------------------------------------------
         1        2.0000           -0.7367609             -20.0483
         2        2.0000           -0.6476038             -17.6222
         3        2.0000           -0.5840355             -15.8924
         4        2.0000           -0.5413225             -14.7301
         5        2.0000           -0.4995777             -13.5942
         6        2.0000           -0.3592524              -9.7758 (HOMO)
         7                         -0.2828895              -7.6978 (LUMO)
         8                          0.0789943               2.1495
         9                          0.1612853               4.3888
        10                          0.3116892               8.4815
      -------------------------------------------------------------
                  HL-Gap            0.0763629 Eh            2.0779 eV

     #   Z        covCN         q      C6AA      Î±(0)
     1   8 O      1.658    -0.256    18.263     5.769
Molecule has the following symmetry elements: (sigma)
It seems to be the Cs point group
     2   6 C      1.776    -0.083    33.508     9.358
     3   1 H      0.804     0.305     0.706     1.320
     4   1 H      0.921     0.034     2.535     2.490

Wiberg/Mayer (AO) data.
largest (>0.10) Wiberg bond orders for each atom
          total WBO             WBO to atom ...

molecular dipole:
                 x           y           z       tot (Debye)
 q only:       -0.520       0.165      -0.065
   full:       -0.696      -0.177       0.086       1.838

 projected vibrational frequencies (cm-1)
eigval :       -0.00    -0.00    -0.00     0.00     0.00     0.00
eigval :     1013.17  1144.91  1330.59  1425.57  2748.74  3313.64

   temp. (K)  partition function   enthalpy   heat capacity  entropy
                                   cal/mol     cal/K/mol   cal/K/mol   J/K/mol
  10.00  VIB   1.00                    0.000      0.000     -0.000
         ROT   8.96                   29.809      2.981      7.338
         INT   8.96                   29.809      2.981      7.338
         TR   0.978E+24               49.681      4.968     19.257
         TOT                          79.4904     7.9490    26.5947   111.2723

       T/K    H(0)-H(T)+PV         H(T)/Eh          T*S/Eh         G(T)/Eh
   ------------------------------------------------------------------------
    298.15    0.384933E-02    0.288559E-01    0.255404E-01    0.331545E-02
    120.00    0.152014E-02    0.265267E-01    0.886199E-02    0.176647E-01
    100.00    0.126676E-02    0.262733E-01    0.715408E-02    0.191193E-01
     80.00    0.101341E-02    0.260200E-01    0.549719E-02    0.205228E-01
     60.00    0.760056E-03    0.257666E-01    0.390431E-02    0.218623E-01
     40.00    0.506704E-03    0.255133E-01    0.239748E-02    0.231158E-01
     20.00    0.253352E-03    0.252599E-01    0.102318E-02    0.242367E-01
     10.00    0.126676E-03    0.251332E-01    0.423814E-03    0.247094E-01 (used)
   ------------------------------------------------------------------------

         :::::::::::::::::::::::::::::::::::::::::::::::::::::
         ::                  THERMODYNAMIC                  ::
         :::::::::::::::::::::::::::::::::::::::::::::::::::::
         :: total free energy          -7.068468002797 Eh   ::
         ::.................................................::
         :: total energy               -7.093177437092 Eh   ::
         :: zero point energy           0.025006572101 Eh   ::
         :: G(RRHO) w/o ZPVE           -0.000297137806 Eh   ::
         :: G(RRHO) contrib.            0.024709434295 Eh   ::
         :::::::::::::::::::::::::::::::::::::::::::::::::::::

           -------------------------------------------------
          | TOTAL ENERGY               -7.093177437092 Eh   |
          | TOTAL ENTHALPY             -7.068044188975 Eh   |
          | TOTAL FREE ENERGY          -7.068468002797 Eh   |
          | GRADIENT NORM               0.000427535015 Eh/Î± |
          | HOMO-LUMO GAP               2.077939419091 eV   |
           -------------------------------------------------

 * finished run on 2020/05/12 at 11:45:07.197
