   * xtb version 6.2.2 (9d81278992624c895f80dd42a50cac0aa55982e2) compiled by '@Darwin' on 04/03/2020
          program call               : xtb --input C4N1_22_S_3.input C4N1_22_S_3.xyz --ohess --molden --namespace C4N1_22_S_3 output.out
          number of atoms            :                     5
          number of electrons        :                    21
          charge                     :                     0
          spin                       :                   1.5

   ID    Z sym.   atoms
    1    6 C      1-4
    2    7 N      5

          :  Hamiltonian                  GFN2-xTB          :
 * total energy  :   -10.8891545 Eh     change       -0.2705203E-08 Eh
 * total energy  :   -11.0028523 Eh     change       -0.1136978E+00 Eh
 * total energy  :   -10.9847200 Eh     change        0.1813227E-01 Eh
 * total energy  :   -11.0620252 Eh     change       -0.7730518E-01 Eh
 * total energy  :   -11.0678036 Eh     change       -0.5778403E-02 Eh
 * total energy  :   -11.0724448 Eh     change       -0.4641179E-02 Eh
 * total energy  :   -11.0746158 Eh     change       -0.2170984E-02 Eh
 * total energy  :   -11.0755428 Eh     change       -0.9270539E-03 Eh
 * total energy  :   -11.0756754 Eh     change       -0.1325183E-03 Eh
 * total energy  :   -11.0770917 Eh     change       -0.1416345E-02 Eh
 * total energy  :   -11.0781477 Eh     change       -0.4653111E-04 Eh
 * total energy  :   -11.0781705 Eh     change       -0.2283686E-04 Eh
 * total energy  :   -11.0781821 Eh     change       -0.1157044E-04 Eh
 * total energy  :   -11.0782032 Eh     change       -0.2115947E-04 Eh
 * total energy  :   -11.0782233 Eh     change       -0.2010503E-04 Eh
 * total energy  :   -11.0782468 Eh     change       -0.2349920E-04 Eh
 * total energy  :   -11.0782613 Eh     change       -0.1445401E-04 Eh
 * total energy  :   -11.0782670 Eh     change       -0.5718766E-05 Eh
 * total energy  :   -11.0782688 Eh     change       -0.1772424E-05 Eh
   *** GEOMETRY OPTIMIZATION CONVERGED AFTER 22 ITERATIONS ***

 final structure:
================
5
 xtb: 6.2.2 (9d81278992624c895f80dd42a50cac0aa55982e2)
C        -1.51576086825310   -0.68463277696641    0.33907342218257
C        -0.21954113267814   -0.00918738916625    0.02023966800973
C         1.08118348709051    0.04084197182438   -0.11398543746618
C        -1.59888286768509    0.56241631303407   -0.00669012923685
N         2.25300138152582    0.09056188127420   -0.23863752348926

          :  Hamiltonian                  GFN2-xTB          :
         :: gradient norm              0.000708627992 Eh/a0 ::
         :: HOMO-LUMO gap              2.440901739238 eV    ::
         :: SCC energy               -11.309920233948 Eh    ::
         :: -> dispersion             -0.002665905462 Eh    ::
         :: repulsion energy           0.231651570564 Eh    ::

    * Orbital Energies and Occupations

         #    Occupation            Energy/Eh            Energy/eV
      -------------------------------------------------------------
         1        2.0000           -0.7239571             -19.6999
         2        2.0000           -0.6776376             -18.4395
         3        2.0000           -0.6451945             -17.5566
         4        2.0000           -0.5799502             -15.7812
         5        2.0000           -0.5572572             -15.1637
         6        2.0000           -0.5499993             -14.9662
         7        2.0000           -0.5125010             -13.9459
         8        2.0000           -0.4978958             -13.5484
         9        2.0000           -0.4549098             -12.3787
        10        1.0000           -0.4294647             -11.6863
        11        1.0000           -0.4233029             -11.5187
        12        1.0000           -0.3684409             -10.0258 (HOMO)
        13                         -0.2787394              -7.5849 (LUMO)
        14                         -0.2495249              -6.7899
        15                         -0.1633648              -4.4454
        16                         -0.0232324              -0.6322
        17                         -0.0093644              -0.2548
        18                          0.4349246              11.8349
        19                          0.5625056              15.3066
        20                          1.2007426              32.6739
      -------------------------------------------------------------
                  HL-Gap            0.0897015 Eh            2.4409 eV

     #   Z        covCN         q      C6AA      Î±(0)
     1   6 C      1.958     0.003    30.998     8.991
     2   6 C      2.937     0.070    26.426     8.431
     3   6 C      1.891     0.111    28.377     8.603
     4   6 C      1.958     0.003    30.994     8.991
     5   7 N      0.912    -0.187    25.056     7.239
Molecule has the following symmetry elements: (C2) 2*(sigma)
It seems to be the C2v point group

Wiberg/Mayer (AO) data.
largest (>0.10) Wiberg bond orders for each atom
          total WBO             WBO to atom ...

molecular dipole:
                 x           y           z       tot (Debye)
 q only:       -0.618      -0.025       0.065
   full:       -0.987      -0.042       0.105       2.526

 projected vibrational frequencies (cm-1)
eigval :       -0.00    -0.00    -0.00    -0.00     0.00     0.00
eigval :      136.15   163.50   353.72   454.08   586.11   726.80
eigval :     1452.35  1809.75  2072.07

   temp. (K)  partition function   enthalpy   heat capacity  entropy
                                   cal/mol     cal/K/mol   cal/K/mol   J/K/mol
  10.00  VIB   1.00                    0.000      0.000     -0.025
         ROT   112.                   29.809      2.981     12.361
         INT   112.                   29.809      2.981     12.336
         TR   0.290E+25               49.681      4.968     21.419
         TOT                          79.4904     7.9490    33.7556   141.2336

       T/K    H(0)-H(T)+PV         H(T)/Eh          T*S/Eh         G(T)/Eh
   ------------------------------------------------------------------------
    298.15    0.596023E-02    0.236263E-01    0.326990E-01   -0.907261E-02
    120.00    0.182835E-02    0.194945E-01    0.106945E-01    0.879992E-02
    100.00    0.146061E-02    0.191267E-01    0.857765E-02    0.105491E-01
     80.00    0.111710E-02    0.187832E-01    0.655620E-02    0.122270E-01
     60.00    0.800142E-03    0.184663E-01    0.464423E-02    0.138220E-01
     40.00    0.513462E-03    0.181796E-01    0.286427E-02    0.153153E-01
     20.00    0.253392E-03    0.179195E-01    0.125206E-02    0.166675E-01
     10.00    0.126676E-03    0.177928E-01    0.537930E-03    0.172549E-01 (used)
   ------------------------------------------------------------------------

         :::::::::::::::::::::::::::::::::::::::::::::::::::::
         ::                  THERMODYNAMIC                  ::
         :::::::::::::::::::::::::::::::::::::::::::::::::::::
         :: total free energy         -11.061013918092 Eh   ::
         ::.................................................::
         :: total energy              -11.078268784078 Eh   ::
         :: zero point energy           0.017666120429 Eh   ::
         :: G(RRHO) w/o ZPVE           -0.000411254444 Eh   ::
         :: G(RRHO) contrib.            0.017254865985 Eh   ::
         :::::::::::::::::::::::::::::::::::::::::::::::::::::

           -------------------------------------------------
          | TOTAL ENERGY              -11.078268784078 Eh   |
          | TOTAL ENTHALPY            -11.060475987631 Eh   |
          | TOTAL FREE ENERGY         -11.061013918092 Eh   |
          | GRADIENT NORM               0.000708542151 Eh/Î± |
          | HOMO-LUMO GAP               2.440900743812 eV   |
           -------------------------------------------------

 * finished run on 2020/05/12 at 11:44:07.941
