   * xtb version 6.2.2 (9d81278992624c895f80dd42a50cac0aa55982e2) compiled by '@Darwin' on 04/03/2020
          program call               : xtb --input H4C1_0_S_2.input H4C1_0_S_2.xyz --ohess --molden --namespace H4C1_0_S_2 output.out
          number of atoms            :                     5
          number of electrons        :                     8
          charge                     :                     0
          spin                       :                   1.0

   ID    Z sym.   atoms
    1    6 C      1
    2    1 H      2-5

          :  Hamiltonian                  GFN2-xTB          :
 * total energy  :    -3.5871729 Eh     change       -0.1010320E-07 Eh
 * total energy  :    -3.7414528 Eh     change       -0.1542800E+00 Eh
 * total energy  :    -3.7588236 Eh     change       -0.1737074E-01 Eh
 * total energy  :    -3.7658217 Eh     change       -0.6998122E-02 Eh
 * total energy  :    -3.7666461 Eh     change       -0.8244608E-03 Eh
 * total energy  :    -3.7666775 Eh     change       -0.3135810E-04 Eh
 * total energy  :    -3.7666779 Eh     change       -0.3700420E-06 Eh
   *** GEOMETRY OPTIMIZATION CONVERGED AFTER 7 ITERATIONS ***

 final structure:
================
5
 xtb: 6.2.2 (9d81278992624c895f80dd42a50cac0aa55982e2)
C         0.00003459241938    0.00001541223690   -0.00002844450965
H        -0.88136331656383    1.11232159030234   -0.03344058062917
H        -0.56595390124438   -1.07431976368610   -0.73528122359174
H         0.20195430577154   -0.40275942880169    1.34592213395163
H         1.24532831961728    0.36474218994856   -0.57717188522107

          :  Hamiltonian                  GFN2-xTB          :
         :: gradient norm              0.000612847854 Eh/a0 ::
         :: HOMO-LUMO gap              2.648270262659 eV    ::
         :: SCC energy                -3.771478594633 Eh    ::
         :: -> dispersion             -0.001017652275 Eh    ::
         :: repulsion energy           0.004800656052 Eh    ::

    * Orbital Energies and Occupations

         #    Occupation            Energy/Eh            Energy/eV
      -------------------------------------------------------------
         1        2.0000           -0.5960727             -16.2200
         2        1.6680           -0.4615017             -12.5581
         3        1.6670           -0.4614977             -12.5580
         4        1.6650           -0.4614890             -12.5578
         5        1.0000           -0.2112762              -5.7491 (HOMO)
         6                         -0.1139539              -3.1008 (LUMO)
         7                         -0.1137840              -3.0962
         8                         -0.1137321              -3.0948
      -------------------------------------------------------------
                  HL-Gap            0.0973222 Eh            2.6483 eV

     #   Z        covCN         q      C6AA      Î±(0)
     1   6 C      1.938    -0.160    35.658     9.643
     2   1 H      0.485     0.040     3.915     3.406
     3   1 H      0.485     0.040     3.914     3.406
     4   1 H      0.485     0.040     3.906     3.401
     5   1 H      0.483     0.040     3.938     3.419

Wiberg/Mayer (AO) data.
largest (>0.10) Wiberg bond orders for each atom
          total WBO             WBO to atom ...

molecular dipole:
                 x           y           z       tot (Debye)
 q only:       -0.001      -0.000       0.000
   full:       -0.001      -0.001       0.001       0.004

 projected vibrational frequencies (cm-1)
eigval :       -0.00    -0.00    -0.00    -0.00     0.00     0.00
eigval :    -3111.54 -3104.19 -3102.34 -1690.39 -1689.96   294.91
eigval :      304.34   309.00  1910.57

   temp. (K)  partition function   enthalpy   heat capacity  entropy
                                   cal/mol     cal/K/mol   cal/K/mol   J/K/mol
  10.00  VIB   1.00                    0.000      0.000     -0.004
         ROT  0.493                   29.809      2.981      1.576
         INT  0.493                   29.809      2.981      1.572
         TR   0.382E+24               49.681      4.968     17.389
         TOT                          79.4904     7.9490    18.9610    79.3329

       T/K    H(0)-H(T)+PV         H(T)/Eh          T*S/Eh         G(T)/Eh
   ------------------------------------------------------------------------
    298.15    0.502808E-02    0.114498E-01    0.238291E-01   -0.123793E-01
    120.00    0.163299E-02    0.805473E-02    0.754669E-02    0.508036E-03
    100.00    0.132066E-02    0.774240E-02    0.600455E-02    0.173785E-02
     80.00    0.103142E-02    0.745316E-02    0.454588E-02    0.290728E-02
     60.00    0.762990E-03    0.718473E-02    0.317812E-02    0.400661E-02
     40.00    0.506783E-03    0.692852E-02    0.191116E-02    0.501736E-02
     20.00    0.253352E-03    0.667509E-02    0.779932E-03    0.589516E-02
     10.00    0.126676E-03    0.654841E-02    0.302163E-03    0.624625E-02 (used)
   ------------------------------------------------------------------------

         :::::::::::::::::::::::::::::::::::::::::::::::::::::
         ::                  THERMODYNAMIC                  ::
         :::::::::::::::::::::::::::::::::::::::::::::::::::::
         :: total free energy          -3.760431614440 Eh   ::
         ::.................................................::
         :: total energy               -3.766677862994 Eh   ::
         :: zero point energy           0.006421735627 Eh   ::
         :: G(RRHO) w/o ZPVE           -0.000175487073 Eh   ::
         :: G(RRHO) contrib.            0.006246248554 Eh   ::
         :::::::::::::::::::::::::::::::::::::::::::::::::::::

           -------------------------------------------------
          | TOTAL ENERGY               -3.766677862994 Eh   |
          | TOTAL ENTHALPY             -3.760129451351 Eh   |
          | TOTAL FREE ENERGY          -3.760431614440 Eh   |
          | GRADIENT NORM               0.000613786044 Eh/Î± |
          | HOMO-LUMO GAP               2.648271990800 eV   |
           -------------------------------------------------

 * finished run on 2020/05/12 at 11:45:16.025
