   * xtb version 6.2.2 (9d81278992624c895f80dd42a50cac0aa55982e2) compiled by '@Darwin' on 04/03/2020
          program call               : xtb --input H2C1N2_0_S_2.input H2C1N2_0_S_2.xyz --ohess --molden --namespace H2C1N2_0_S_2 output.out
          number of atoms            :                     5
          number of electrons        :                    16
          charge                     :                     0
          spin                       :                   1.0

   ID    Z sym.   atoms
    1    7 N      1, 3
    2    6 C      2
    3    1 H      4, 5

          :  Hamiltonian                  GFN2-xTB          :
 * total energy  :    -8.5963337 Eh     change        0.9398349E-10 Eh
 * total energy  :    -8.6120761 Eh     change       -0.1574240E-01 Eh
 * total energy  :    -8.6337425 Eh     change       -0.2166642E-01 Eh
 * total energy  :    -8.6584115 Eh     change       -0.2466905E-01 Eh
 * total energy  :    -8.6440255 Eh     change        0.1438604E-01 Eh
 * total energy  :    -8.6714416 Eh     change       -0.2741605E-01 Eh
 * total energy  :    -8.6752210 Eh     change       -0.3779400E-02 Eh
 * total energy  :    -8.3231004 Eh     change        0.3521205E+00 Eh
 * total energy  :    -8.6789093 Eh     change       -0.3558089E+00 Eh
 * total energy  :    -8.6839840 Eh     change       -0.5074699E-02 Eh
 * total energy  :    -8.6846610 Eh     change       -0.6769768E-03 Eh
 * total energy  :    -8.6848015 Eh     change       -0.1405431E-03 Eh
 * total energy  :    -8.6848979 Eh     change       -0.9641205E-04 Eh
 * total energy  :    -8.6849440 Eh     change       -0.4607768E-04 Eh
 * total energy  :    -8.6849644 Eh     change       -0.2044427E-04 Eh
 * total energy  :    -8.6849756 Eh     change       -0.1112961E-04 Eh
 * total energy  :    -8.6849801 Eh     change       -0.4569693E-05 Eh
   *** GEOMETRY OPTIMIZATION CONVERGED AFTER 17 ITERATIONS ***

 final structure:
================
5
 xtb: 6.2.2 (9d81278992624c895f80dd42a50cac0aa55982e2)
N         0.02498701054506   -0.30068939213755    0.01801053713977
C         0.74248358215126    0.96562274047135   -0.05009183584141
N        -0.60355189283641    1.03257799075647   -0.06672223800749
H        -0.09000445430368   -0.79824139662006    0.90392884505046
H        -0.07391424555622   -0.89927094247022   -0.80512430834133

          :  Hamiltonian                  GFN2-xTB          :
         :: gradient norm              0.000645273763 Eh/a0 ::
         :: HOMO-LUMO gap              3.137249609831 eV    ::
         :: SCC energy                -8.757605331321 Eh    ::
         :: -> dispersion             -0.001442278375 Eh    ::
         :: repulsion energy           0.072625168321 Eh    ::

    * Orbital Energies and Occupations

         #    Occupation            Energy/Eh            Energy/eV
      -------------------------------------------------------------
         1        2.0000           -0.7025272             -19.1167
         2        2.0000           -0.6451376             -17.5551
         3        2.0000           -0.6015564             -16.3692
         4        2.0000           -0.5700435             -15.5117
         5        2.0000           -0.5005729             -13.6213
         6        2.0000           -0.4265326             -11.6065
         7        2.0000           -0.3992111             -10.8631
         8        1.0000           -0.3745441             -10.1919
         9        1.0000           -0.2368712              -6.4456 (HOMO)
        10                         -0.1215794              -3.3083 (LUMO)
        11                         -0.0748855              -2.0377
        12                          0.1022774               2.7831
        13                          0.1516957               4.1279
        14                          0.3383177               9.2061
      -------------------------------------------------------------
                  HL-Gap            0.1152918 Eh            3.1372 eV

     #   Z        covCN         q      C6AA      Î±(0)
     1   7 N      3.597     0.007    21.132     6.828
     2   6 C      1.817    -0.083    33.446     9.344
     3   7 N      1.881    -0.264    27.708     7.803
     4   1 H      0.859     0.170     1.275     1.769
     5   1 H      0.859     0.170     1.275     1.769

Wiberg/Mayer (AO) data.
largest (>0.10) Wiberg bond orders for each atom
          total WBO             WBO to atom ...

molecular dipole:
                 x           y           z       tot (Debye)
 q only:        0.133      -1.214       0.073
   full:        0.218      -1.775       0.107       4.554

 projected vibrational frequencies (cm-1)
eigval :       -0.00    -0.00    -0.00    -0.00    -0.00     0.00
eigval :      681.13   865.89   873.63   974.14  1023.18  1474.57
eigval :     1548.14  3190.38  3208.54

   temp. (K)  partition function   enthalpy   heat capacity  entropy
                                   cal/mol     cal/K/mol   cal/K/mol   J/K/mol
  10.00  VIB   1.00                    0.000      0.000     -0.000
         ROT   43.3                   29.809      2.981     10.467
         INT   43.3                   29.809      2.981     10.467
         TR   0.162E+25               49.681      4.968     20.259
         TOT                          79.4904     7.9490    30.7264   128.5595

       T/K    H(0)-H(T)+PV         H(T)/Eh          T*S/Eh         G(T)/Eh
   ------------------------------------------------------------------------
    298.15    0.410222E-02    0.356311E-01    0.278244E-01    0.780670E-02
    120.00    0.152129E-02    0.330502E-01    0.965341E-02    0.233968E-01
    100.00    0.126697E-02    0.327959E-01    0.781275E-02    0.249831E-01
     80.00    0.101342E-02    0.325423E-01    0.602397E-02    0.265184E-01
     60.00    0.760056E-03    0.322890E-01    0.429938E-02    0.279896E-01
     40.00    0.506704E-03    0.320356E-01    0.266086E-02    0.293747E-01
     20.00    0.253352E-03    0.317823E-01    0.115487E-02    0.306274E-01
     10.00    0.126676E-03    0.316556E-01    0.489657E-03    0.311659E-01 (used)
   ------------------------------------------------------------------------

         :::::::::::::::::::::::::::::::::::::::::::::::::::::
         ::                  THERMODYNAMIC                  ::
         :::::::::::::::::::::::::::::::::::::::::::::::::::::
         :: total free energy          -8.653814220641 Eh   ::
         ::.................................................::
         :: total energy               -8.684980143315 Eh   ::
         :: zero point energy           0.031528903781 Eh   ::
         :: G(RRHO) w/o ZPVE           -0.000362981107 Eh   ::
         :: G(RRHO) contrib.            0.031165922674 Eh   ::
         :::::::::::::::::::::::::::::::::::::::::::::::::::::

           -------------------------------------------------
          | TOTAL ENERGY               -8.684980143315 Eh   |
          | TOTAL ENTHALPY             -8.653324563518 Eh   |
          | TOTAL FREE ENERGY          -8.653814220641 Eh   |
          | GRADIENT NORM               0.000645312330 Eh/Î± |
          | HOMO-LUMO GAP               3.137249967072 eV   |
           -------------------------------------------------

 * finished run on 2020/05/12 at 11:45:20.194
