   * xtb version 6.2.2 (9d81278992624c895f80dd42a50cac0aa55982e2) compiled by '@Darwin' on 04/03/2020
          program call               : xtb --input H2C3_0_S_2.input H2C3_0_S_2.xyz --ohess --molden --namespace H2C3_0_S_2 output.out
          number of atoms            :                     5
          number of electrons        :                    14
          charge                     :                     0
          spin                       :                   1.0

   ID    Z sym.   atoms
    1    6 C      1-3
    2    1 H      4, 5

          :  Hamiltonian                  GFN2-xTB          :
 * total energy  :    -7.0083972 Eh     change        0.5277299E-09 Eh
 * total energy  :    -7.0184806 Eh     change       -0.1008339E-01 Eh
 * total energy  :    -7.0210091 Eh     change       -0.2528512E-02 Eh
 * total energy  :    -7.0445002 Eh     change       -0.2349111E-01 Eh
 * total energy  :    -7.1227104 Eh     change       -0.7821020E-01 Eh
 * total energy  :    -6.2700461 Eh     change        0.8526643E+00 Eh
 * total energy  :    -7.0993327 Eh     change       -0.8292866E+00 Eh
 * total energy  :    -7.1119737 Eh     change       -0.1264100E-01 Eh
 * total energy  :    -7.1225342 Eh     change       -0.1056053E-01 Eh
 * total energy  :    -7.1236084 Eh     change       -0.1074211E-02 Eh
 * total energy  :    -7.1242155 Eh     change       -0.6070517E-03 Eh
 * total energy  :    -7.1242583 Eh     change       -0.4282450E-04 Eh
 * total energy  :    -7.1242596 Eh     change       -0.1294334E-05 Eh
   *** GEOMETRY OPTIMIZATION CONVERGED AFTER 13 ITERATIONS ***

 final structure:
================
5
 xtb: 6.2.2 (9d81278992624c895f80dd42a50cac0aa55982e2)
C        -0.00575136883695   -0.33162523543747    0.01967832857083
C         0.65671162076531    1.06406754639869   -0.06970701809987
C        -0.61940991039836    1.08689705934945   -0.05792925630684
H        -0.00638288794075   -0.85564507789883    0.96717112200388
H        -0.02516645358924   -0.96369529241184   -0.85921317616799

          :  Hamiltonian                  GFN2-xTB          :
         :: gradient norm              0.000682074713 Eh/a0 ::
         :: HOMO-LUMO gap              4.112484084042 eV    ::
         :: SCC energy                -7.252907363246 Eh    ::
         :: -> dispersion             -0.001531400149 Eh    ::
         :: repulsion energy           0.128647749011 Eh    ::

    * Orbital Energies and Occupations

         #    Occupation            Energy/Eh            Energy/eV
      -------------------------------------------------------------
         1        2.0000           -0.6709336             -18.2570
         2        2.0000           -0.5939383             -16.1619
         3        2.0000           -0.5315570             -14.4644
         4        2.0000           -0.5178981             -14.0927
         5        2.0000           -0.4916337             -13.3780
         6        2.0000           -0.4137271             -11.2581
         7        1.0000           -0.3882410             -10.5646
         8        1.0000           -0.3658705              -9.9558 (HOMO)
         9                         -0.2147395              -5.8434 (LUMO)
        10                         -0.0611175              -1.6631
        11                          0.0399161               1.0862
        12                          0.1864861               5.0745
        13                          0.2344250               6.3790
        14                          0.6718603              18.2822
      -------------------------------------------------------------
                  HL-Gap            0.1511310 Eh            4.1125 eV

     #   Z        covCN         q      C6AA      Î±(0)
     1   6 C      3.796     0.012    20.377     6.428
     2   6 C      1.954    -0.056    32.602     9.221
     3   6 C      1.954    -0.056    32.602     9.221
     4   1 H      0.925     0.050     2.314     2.379
     5   1 H      0.925     0.050     2.314     2.379

Wiberg/Mayer (AO) data.
largest (>0.10) Wiberg bond orders for each atom
          total WBO             WBO to atom ...

molecular dipole:
                 x           y           z       tot (Debye)
 q only:       -0.007      -0.411       0.024
   full:       -0.011      -0.626       0.037       1.593

 projected vibrational frequencies (cm-1)
eigval :       -0.00    -0.00    -0.00     0.00     0.00     0.00
eigval :     -377.03   722.84   935.12  1003.84  1015.94  1430.43
eigval :     1857.90  3029.84  3036.57

   temp. (K)  partition function   enthalpy   heat capacity  entropy
                                   cal/mol     cal/K/mol   cal/K/mol   J/K/mol
  10.00  VIB   1.00                    0.000      0.000     -0.000
         ROT   20.5                   29.809      2.981      8.979
         INT   20.5                   29.809      2.981      8.978
         TR   0.139E+25               49.681      4.968     19.962
         TOT                          79.4904     7.9490    28.9407   121.0879

       T/K    H(0)-H(T)+PV         H(T)/Eh          T*S/Eh         G(T)/Eh
   ------------------------------------------------------------------------
    298.15    0.400651E-02    0.336967E-01    0.268542E-01    0.684247E-02
    120.00    0.152079E-02    0.312110E-01    0.931135E-02    0.218996E-01
    100.00    0.126687E-02    0.309570E-01    0.752806E-02    0.234290E-01
     80.00    0.101342E-02    0.307036E-01    0.579629E-02    0.249073E-01
     60.00    0.760056E-03    0.304502E-01    0.412863E-02    0.263216E-01
     40.00    0.506704E-03    0.301969E-01    0.254703E-02    0.276498E-01
     20.00    0.253352E-03    0.299435E-01    0.109796E-02    0.288456E-01
     10.00    0.126676E-03    0.298168E-01    0.461199E-03    0.293556E-01 (used)
   ------------------------------------------------------------------------

         :::::::::::::::::::::::::::::::::::::::::::::::::::::
         ::                  THERMODYNAMIC                  ::
         :::::::::::::::::::::::::::::::::::::::::::::::::::::
         :: total free energy          -7.094903949231 Eh   ::
         ::.................................................::
         :: total energy               -7.124259589563 Eh   ::
         :: zero point energy           0.029690163620 Eh   ::
         :: G(RRHO) w/o ZPVE           -0.000334523288 Eh   ::
         :: G(RRHO) contrib.            0.029355640333 Eh   ::
         :::::::::::::::::::::::::::::::::::::::::::::::::::::

           -------------------------------------------------
          | TOTAL ENERGY               -7.124259589563 Eh   |
          | TOTAL ENTHALPY             -7.094442749927 Eh   |
          | TOTAL FREE ENERGY          -7.094903949231 Eh   |
          | GRADIENT NORM               0.000682108297 Eh/Î± |
          | HOMO-LUMO GAP               4.112483673861 eV   |
           -------------------------------------------------

 * finished run on 2020/05/12 at 11:44:25.866
