   * xtb version 6.2.2 (9d81278992624c895f80dd42a50cac0aa55982e2) compiled by '@Darwin' on 04/03/2020
          program call               : xtb --input H1C3N1_24_S_2.input H1C3N1_24_S_2.xyz --ohess --molden --namespace H1C3N1_24_S_2 output.out
          number of atoms            :                     5
          number of electrons        :                    18
          charge                     :                     0
          spin                       :                   1.0

   ID    Z sym.   atoms
    1    6 C      1-3
    2    7 N      4
    3    1 H      5

          :  Hamiltonian                  GFN2-xTB          :
 * total energy  :    -9.4710947 Eh     change       -0.9220535E-10 Eh
 * total energy  :    -9.5133322 Eh     change       -0.4223749E-01 Eh
 * total energy  :    -9.5108274 Eh     change        0.2504750E-02 Eh
 * total energy  :    -9.5323997 Eh     change       -0.2157231E-01 Eh
 * total energy  :    -9.5340430 Eh     change       -0.1643285E-02 Eh
 * total energy  :    -9.5366255 Eh     change       -0.2582472E-02 Eh
 * total energy  :    -9.5379523 Eh     change       -0.1326783E-02 Eh
 * total energy  :    -9.5384961 Eh     change       -0.5438487E-03 Eh
 * total energy  :    -9.5385432 Eh     change       -0.4705396E-04 Eh
 * total energy  :    -9.5386142 Eh     change       -0.7107136E-04 Eh
 * total energy  :    -9.5386164 Eh     change       -0.2212122E-05 Eh
   *** GEOMETRY OPTIMIZATION CONVERGED AFTER 11 ITERATIONS ***

 final structure:
================
5
 xtb: 6.2.2 (9d81278992624c895f80dd42a50cac0aa55982e2)
C        -0.48912290885325   -0.84446613680552    0.17679452177331
C         0.65044900725396   -0.01711841939679    0.03317738415905
C        -0.43978548957874    0.88319396201986    0.10092105387528
N        -1.43323005301693    0.02872392235681   -0.27795671754896
H         1.71168844419496   -0.05033332817437   -0.03293724225867

          :  Hamiltonian                  GFN2-xTB          :
         :: gradient norm              0.000736591754 Eh/a0 ::
         :: HOMO-LUMO gap              2.396508888282 eV    ::
         :: SCC energy                -9.662327705772 Eh    ::
         :: -> dispersion             -0.002073667262 Eh    ::
         :: repulsion energy           0.123711251359 Eh    ::

    * Orbital Energies and Occupations

         #    Occupation            Energy/Eh            Energy/eV
      -------------------------------------------------------------
         1        2.0000           -0.7268351             -19.7782
         2        2.0000           -0.6390316             -17.3889
         3        2.0000           -0.6060385             -16.4911
         4        2.0000           -0.5625487             -15.3077
         5        2.0000           -0.5464887             -14.8707
         6        2.0000           -0.5367462             -14.6056
         7        2.0000           -0.4484919             -12.2041
         8        2.0000           -0.4453934             -12.1198
         9        1.0000           -0.3967424             -10.7959
        10        1.0000           -0.3725101             -10.1365 (HOMO)
        11                         -0.2844401              -7.7400 (LUMO)
        12                         -0.2270154              -6.1774
        13                          0.0914207               2.4877
        14                          0.1276238               3.4728
        15                          0.1568833               4.2690
        16                          0.2038956               5.5483
        17                          0.5975647              16.2606
      -------------------------------------------------------------
                  HL-Gap            0.0880700 Eh            2.3965 eV

     #   Z        covCN         q      C6AA      Î±(0)
     1   6 C      2.796     0.001    27.991     8.667
     2   6 C      3.061     0.029    27.288     8.566
     3   6 C      2.796     0.001    27.991     8.667
     4   7 N      1.993    -0.117    24.274     7.307
     5   1 H      0.927     0.086     1.920     2.167

Wiberg/Mayer (AO) data.
largest (>0.10) Wiberg bond orders for each atom
          total WBO             WBO to atom ...

molecular dipole:
                 x           y           z       tot (Debye)
 q only:        0.629      -0.015       0.058
   full:        1.021      -0.025       0.087       2.606

 projected vibrational frequencies (cm-1)
eigval :       -0.00    -0.00    -0.00     0.00     0.00     0.00
eigval :      547.02   593.73   782.55   846.78   956.64  1083.91
eigval :     1290.42  1425.44  3220.33

   temp. (K)  partition function   enthalpy   heat capacity  entropy
                                   cal/mol     cal/K/mol   cal/K/mol   J/K/mol
  10.00  VIB   1.00                    0.000      0.000     -0.000
         ROT   85.8                   29.809      2.981     11.829
         INT   85.8                   29.809      2.981     11.829
         TR   0.217E+25               49.681      4.968     20.838
         TOT                          79.4904     7.9490    32.6666   136.6771

       T/K    H(0)-H(T)+PV         H(T)/Eh          T*S/Eh         G(T)/Eh
   ------------------------------------------------------------------------
    298.15    0.436983E-02    0.288529E-01    0.291132E-01   -0.260304E-03
    120.00    0.152635E-02    0.260094E-01    0.100303E-01    0.159791E-01
    100.00    0.126831E-02    0.257514E-01    0.812349E-02    0.176279E-01
     80.00    0.101361E-02    0.254967E-01    0.627155E-02    0.192251E-01
     60.00    0.760063E-03    0.252431E-01    0.448491E-02    0.207582E-01
     40.00    0.506704E-03    0.249897E-01    0.278454E-02    0.222052E-01
     20.00    0.253352E-03    0.247364E-01    0.121671E-02    0.235197E-01
     10.00    0.126676E-03    0.246097E-01    0.520576E-03    0.240891E-01 (used)
   ------------------------------------------------------------------------

         :::::::::::::::::::::::::::::::::::::::::::::::::::::
         ::                  THERMODYNAMIC                  ::
         :::::::::::::::::::::::::::::::::::::::::::::::::::::
         :: total free energy          -9.514527300615 Eh   ::
         ::.................................................::
         :: total energy               -9.538616445336 Eh   ::
         :: zero point energy           0.024483044379 Eh   ::
         :: G(RRHO) w/o ZPVE           -0.000393899657 Eh   ::
         :: G(RRHO) contrib.            0.024089144722 Eh   ::
         :::::::::::::::::::::::::::::::::::::::::::::::::::::

           -------------------------------------------------
          | TOTAL ENERGY               -9.538616445336 Eh   |
          | TOTAL ENTHALPY             -9.514006724942 Eh   |
          | TOTAL FREE ENERGY          -9.514527300615 Eh   |
          | GRADIENT NORM               0.000736566706 Eh/Î± |
          | HOMO-LUMO GAP               2.396507881364 eV   |
           -------------------------------------------------

 * finished run on 2020/05/12 at 11:45:00.033
