   * xtb version 6.2.2 (9d81278992624c895f80dd42a50cac0aa55982e2) compiled by '@Darwin' on 04/03/2020
          program call               : xtb --input H2C1N2_3_S_0.input H2C1N2_3_S_0.xyz --ohess --molden --namespace H2C1N2_3_S_0 output.out
          number of atoms            :                     5
          number of electrons        :                    16
          charge                     :                     0
          spin                       :                   0.0

   ID    Z sym.   atoms
    1    7 N      1, 3
    2    6 C      2
    3    1 H      4, 5

          :  Hamiltonian                  GFN2-xTB          :
 * total energy  :    -8.7391009 Eh     change        0.1814264E-09 Eh
 * total energy  :    -8.8133013 Eh     change       -0.7420035E-01 Eh
 * total energy  :    -8.8722325 Eh     change       -0.5893119E-01 Eh
 * total energy  :    -8.8189771 Eh     change        0.5325536E-01 Eh
 * total energy  :    -8.8769246 Eh     change       -0.5794753E-01 Eh
 * total energy  :    -8.8810031 Eh     change       -0.4078470E-02 Eh
 * total energy  :    -8.8889563 Eh     change       -0.7953193E-02 Eh
 * total energy  :    -8.8897021 Eh     change       -0.7457765E-03 Eh
 * total energy  :    -8.8906632 Eh     change       -0.9610921E-03 Eh
 * total energy  :    -8.8907164 Eh     change       -0.5325726E-04 Eh
 * total energy  :    -8.8907136 Eh     change        0.2848335E-05 Eh
 * total energy  :    -8.8907008 Eh     change        0.1277618E-04 Eh
 * total energy  :    -8.8907171 Eh     change       -0.1632757E-04 Eh
 * total energy  :    -8.8907185 Eh     change       -0.1369142E-05 Eh
   *** GEOMETRY OPTIMIZATION CONVERGED AFTER 14 ITERATIONS ***

 final structure:
================
5
 xtb: 6.2.2 (9d81278992624c895f80dd42a50cac0aa55982e2)
N         0.75142306285693   -0.60867040784792    0.67025839614431
C        -0.27713534623413    0.09606653970119   -0.04849335472302
N         1.12547416025609   -0.04352081901353   -0.33913887496182
H        -0.97819380845166   -0.48322120478726   -0.63238509504218
H        -0.62156706842723    1.03934589194752    0.34975892858272

          :  Hamiltonian                  GFN2-xTB          :
         :: gradient norm              0.000606470704 Eh/a0 ::
         :: HOMO-LUMO gap              2.909143120012 eV    ::
         :: SCC energy                -8.985439865316 Eh    ::
         :: -> dispersion             -0.001425320492 Eh    ::
         :: repulsion energy           0.094721337432 Eh    ::

    * Orbital Energies and Occupations

         #    Occupation            Energy/Eh            Energy/eV
      -------------------------------------------------------------
         1        2.0000           -0.7441010             -20.2480
         2        2.0000           -0.6292386             -17.1225
         3        2.0000           -0.5956403             -16.2082
         4        2.0000           -0.5843588             -15.9012
         5        2.0000           -0.5446547             -14.8208
         6        2.0000           -0.4764321             -12.9644
         7        2.0000           -0.4555856             -12.3971
         8        2.0000           -0.4390352             -11.9468 (HOMO)
         9                         -0.3321262              -9.0376 (LUMO)
        10                         -0.1021071              -2.7785
        11                          0.0670747               1.8252
        12                          0.1902312               5.1765
        13                          0.2476565               6.7391
        14                          0.3673312               9.9956
      -------------------------------------------------------------
                  HL-Gap            0.1069090 Eh            2.9091 eV

     #   Z        covCN         q      C6AA      Î±(0)
     1   7 N      1.889    -0.060    23.125     7.129
     2   6 C      3.667     0.046    20.057     6.422
     3   7 N      1.889    -0.060    23.127     7.129
     4   1 H      0.926     0.037     2.492     2.469
     5   1 H      0.926     0.037     2.491     2.468

Wiberg/Mayer (AO) data.
largest (>0.10) Wiberg bond orders for each atom
          total WBO             WBO to atom ...

molecular dipole:
                 x           y           z       tot (Debye)
 q only:       -0.347       0.120      -0.061
   full:       -0.583       0.203      -0.103       1.591

 projected vibrational frequencies (cm-1)
eigval :       -0.00    -0.00    -0.00    -0.00     0.00     0.00
eigval :      954.88   979.94   983.65  1091.60  1196.32  1444.63
eigval :     1800.03  3089.84  3101.14

   temp. (K)  partition function   enthalpy   heat capacity  entropy
                                   cal/mol     cal/K/mol   cal/K/mol   J/K/mol
  10.00  VIB   1.00                    0.000      0.000     -0.000
         ROT   19.7                   29.809      2.981      8.901
         INT   19.7                   29.809      2.981      8.901
         TR   0.162E+25               49.681      4.968     20.259
         TOT                          79.4904     7.9490    29.1603   122.0068

       T/K    H(0)-H(T)+PV         H(T)/Eh          T*S/Eh         G(T)/Eh
   ------------------------------------------------------------------------
    298.15    0.395008E-02    0.373071E-01    0.268818E-01    0.104253E-01
    120.00    0.152024E-02    0.348772E-01    0.935273E-02    0.255245E-01
    100.00    0.126677E-02    0.346238E-01    0.756295E-02    0.270608E-01
     80.00    0.101341E-02    0.343704E-01    0.582428E-02    0.285461E-01
     60.00    0.760056E-03    0.341171E-01    0.414962E-02    0.299674E-01
     40.00    0.506704E-03    0.338637E-01    0.256103E-02    0.313027E-01
     20.00    0.253352E-03    0.336104E-01    0.110496E-02    0.325054E-01
     10.00    0.126676E-03    0.334837E-01    0.464699E-03    0.330190E-01 (used)
   ------------------------------------------------------------------------

         :::::::::::::::::::::::::::::::::::::::::::::::::::::
         ::                  THERMODYNAMIC                  ::
         :::::::::::::::::::::::::::::::::::::::::::::::::::::
         :: total free energy          -8.857699532001 Eh   ::
         ::.................................................::
         :: total energy               -8.890718507317 Eh   ::
         :: zero point energy           0.033356998714 Eh   ::
         :: G(RRHO) w/o ZPVE           -0.000338023398 Eh   ::
         :: G(RRHO) contrib.            0.033018975316 Eh   ::
         :::::::::::::::::::::::::::::::::::::::::::::::::::::

           -------------------------------------------------
          | TOTAL ENERGY               -8.890718507317 Eh   |
          | TOTAL ENTHALPY             -8.857234832587 Eh   |
          | TOTAL FREE ENERGY          -8.857699532001 Eh   |
          | GRADIENT NORM               0.000606467787 Eh/Î± |
          | HOMO-LUMO GAP               2.909143099631 eV   |
           -------------------------------------------------

 * finished run on 2020/05/12 at 11:45:21.053
