   * xtb version 6.2.2 (9d81278992624c895f80dd42a50cac0aa55982e2) compiled by '@Darwin' on 04/03/2020
          program call               : xtb --input C2N1_2_S_1.input C2N1_2_S_1.xyz --ohess --molden --namespace C2N1_2_S_1 output.out
          number of atoms            :                     3
          number of electrons        :                    13
          charge                     :                     0
          spin                       :                   0.5

   ID    Z sym.   atoms
    1    6 C      1, 3
    2    7 N      2

          :  Hamiltonian                  GFN2-xTB          :
 * total energy  :    -6.8738378 Eh     change       -0.4374368E-10 Eh
 * total energy  :    -6.8975643 Eh     change       -0.2372653E-01 Eh
 * total energy  :    -6.8995936 Eh     change       -0.2029299E-02 Eh
 * total energy  :    -6.9001683 Eh     change       -0.5746405E-03 Eh
 * total energy  :    -6.9001755 Eh     change       -0.7224149E-05 Eh
 * total energy  :    -6.9001756 Eh     change       -0.1205081E-06 Eh
   *** GEOMETRY OPTIMIZATION CONVERGED AFTER 6 ITERATIONS ***

 final structure:
================
3
 xtb: 6.2.2 (9d81278992624c895f80dd42a50cac0aa55982e2)
C         0.70321078345522   -0.35710999027883    0.06914037706770
N        -0.62982687885252   -0.43114993810181   -0.06047327736192
C        -0.07338390460271    0.78825992838064   -0.00866709970578

          :  Hamiltonian                  GFN2-xTB          :
         :: gradient norm              0.000165355159 Eh/a0 ::
         :: HOMO-LUMO gap              2.577983957588 eV    ::
         :: SCC energy                -6.985212765391 Eh    ::
         :: -> dispersion             -0.000897609527 Eh    ::
         :: repulsion energy           0.085037142655 Eh    ::

    * Orbital Energies and Occupations

         #    Occupation            Energy/Eh            Energy/eV
Molecule has the following symmetry elements: (C2) 2*(sigma)
It seems to be the C2v point group
      -------------------------------------------------------------
         1        2.0000           -0.7472231             -20.3330
         2        2.0000           -0.6042679             -16.4430
         3        2.0000           -0.6007119             -16.3462
         4        2.0000           -0.5749120             -15.6442
         5        2.0000           -0.4616303             -12.5616
         6        2.0000           -0.4606005             -12.5336
         7        1.0000           -0.4412247             -12.0063 (HOMO)
         8                         -0.3464856              -9.4284 (LUMO)
         9                         -0.3132338              -8.5235
        10                         -0.0512862              -1.3956
        11                          0.2445458               6.6544
        12                          0.3879667              10.5571
      -------------------------------------------------------------
                  HL-Gap            0.0947392 Eh            2.5780 eV

     #   Z        covCN         q      C6AA      Î±(0)
     1   6 C      1.890     0.041    30.069     8.856
     2   7 N      1.820    -0.082    23.577     7.195
     3   6 C      1.890     0.041    30.069     8.856

Wiberg/Mayer (AO) data.
largest (>0.10) Wiberg bond orders for each atom
          total WBO             WBO to atom ...

molecular dipole:
                 x           y           z       tot (Debye)
 q only:        0.146       0.100       0.014
   full:       -0.028      -0.019      -0.003       0.085

 projected vibrational frequencies (cm-1)
eigval :       -0.00    -0.00     0.00     0.00     0.00     0.00
eigval :      336.96  1068.40  1737.57

   temp. (K)  partition function   enthalpy   heat capacity  entropy
                                   cal/mol     cal/K/mol   cal/K/mol   J/K/mol
  10.00  VIB   1.00                    0.000      0.000     -0.001
         ROT   13.1                   29.809      2.981      8.095
         INT   13.1                   29.809      2.981      8.095
         TR   0.139E+25               49.681      4.968     19.961
         TOT                          79.4904     7.9490    28.0553   117.3833

       T/K    H(0)-H(T)+PV         H(T)/Eh          T*S/Eh         G(T)/Eh
   ------------------------------------------------------------------------
    298.15    0.418285E-02    0.113430E-01    0.267675E-01   -0.154245E-01
    120.00    0.154763E-02    0.870774E-02    0.917573E-02   -0.467995E-03
    100.00    0.127890E-02    0.843901E-02    0.740163E-02    0.103738E-02
     80.00    0.101700E-02    0.817711E-02    0.568771E-02    0.248941E-02
     60.00    0.760532E-03    0.792065E-02    0.404458E-02    0.387607E-02
     40.00    0.506712E-03    0.766683E-02    0.249064E-02    0.517619E-02
     20.00    0.253352E-03    0.741347E-02    0.106975E-02    0.634372E-02
     10.00    0.126676E-03    0.728679E-02    0.447090E-03    0.683970E-02 (used)
   ------------------------------------------------------------------------

         :::::::::::::::::::::::::::::::::::::::::::::::::::::
         ::                  THERMODYNAMIC                  ::
         :::::::::::::::::::::::::::::::::::::::::::::::::::::
         :: total free energy          -6.893335921876 Eh   ::
         ::.................................................::
         :: total energy               -6.900175621906 Eh   ::
         :: zero point energy           0.007160113580 Eh   ::
         :: G(RRHO) w/o ZPVE           -0.000320413550 Eh   ::
         :: G(RRHO) contrib.            0.006839700030 Eh   ::
         :::::::::::::::::::::::::::::::::::::::::::::::::::::

           -------------------------------------------------
          | TOTAL ENERGY               -6.900175621906 Eh   |
          | TOTAL ENTHALPY             -6.892888832310 Eh   |
          | TOTAL FREE ENERGY          -6.893335921876 Eh   |
          | GRADIENT NORM               0.000165356725 Eh/Î± |
          | HOMO-LUMO GAP               2.577984005180 eV   |
           -------------------------------------------------

 * finished run on 2020/05/12 at 11:43:54.087
