   * xtb version 6.2.2 (9d81278992624c895f80dd42a50cac0aa55982e2) compiled by '@Darwin' on 04/03/2020
          program call               : xtb --input C4N1_31_S_1.input C4N1_31_S_1.xyz --ohess --molden --namespace C4N1_31_S_1 output.out
          number of atoms            :                     5
          number of electrons        :                    21
          charge                     :                     0
          spin                       :                   0.5

   ID    Z sym.   atoms
    1    6 C      1, 3-5
    2    7 N      2

          :  Hamiltonian                  GFN2-xTB          :
 * total energy  :   -10.9761536 Eh     change       -0.1336069E-08 Eh
 * total energy  :   -11.0141079 Eh     change       -0.3795435E-01 Eh
 * total energy  :   -11.0464428 Eh     change       -0.3233486E-01 Eh
 * total energy  :   -11.0521241 Eh     change       -0.5681316E-02 Eh
 * total energy  :   -11.0571212 Eh     change       -0.4997132E-02 Eh
 * total energy  :   -11.0594095 Eh     change       -0.2288244E-02 Eh
 * total energy  :   -11.0606122 Eh     change       -0.1202719E-02 Eh
 * total energy  :   -11.0610621 Eh     change       -0.4498890E-03 Eh
 * total energy  :   -11.0611219 Eh     change       -0.5976811E-04 Eh
 * total energy  :   -11.0611317 Eh     change       -0.9815052E-05 Eh
 * total energy  :   -11.0876329 Eh     change       -0.1376087E-02 Eh
 * total energy  :   -11.0878500 Eh     change       -0.2171121E-03 Eh
 * total energy  :   -11.0879389 Eh     change       -0.8891090E-04 Eh
 * total energy  :   -11.0879918 Eh     change       -0.5295724E-04 Eh
 * total energy  :   -11.0880251 Eh     change       -0.3321157E-04 Eh
 * total energy  :   -11.0880362 Eh     change       -0.1115889E-04 Eh
 * total energy  :   -11.0880462 Eh     change       -0.9961477E-05 Eh
 * total energy  :   -11.0880525 Eh     change       -0.6373298E-05 Eh
 * total energy  :   -11.0880564 Eh     change       -0.3892692E-05 Eh
   *** GEOMETRY OPTIMIZATION CONVERGED AFTER 29 ITERATIONS ***

 final structure:
================
5
 xtb: 6.2.2 (9d81278992624c895f80dd42a50cac0aa55982e2)
C        -0.59708489065865    0.54540629554389    0.02552812265842
N         0.53981528699728    1.21063482262700    0.12453198079507
C         0.15758109542032   -1.03808802276835    0.25021808673307
C         1.00211918472278   -0.00991351199754   -0.16889132318124
C        -1.10243067648173   -0.70803958340500   -0.23138686700532

          :  Hamiltonian                  GFN2-xTB          :
         :: gradient norm              0.000547782774 Eh/a0 ::
         :: HOMO-LUMO gap              1.658292316166 eV    ::
         :: SCC energy               -11.253501546172 Eh    ::
         :: -> dispersion             -0.002698217662 Eh    ::
         :: repulsion energy           0.165445081622 Eh    ::

    * Orbital Energies and Occupations

         #    Occupation            Energy/Eh            Energy/eV
      -------------------------------------------------------------
         1        2.0000           -0.7589872             -20.6531
         2        2.0000           -0.6959795             -18.9386
         3        2.0000           -0.6490768             -17.6623
         4        2.0000           -0.6017310             -16.3739
         5        2.0000           -0.5853243             -15.9275
         6        2.0000           -0.5724631             -15.5775
         7        2.0000           -0.5132426             -13.9660
         8        2.0000           -0.4753181             -12.9341
         9        2.0000           -0.4581292             -12.4663
        10        2.0000           -0.4387828             -11.9399
        11        1.0000           -0.4091596             -11.1338 (HOMO)
        12                         -0.3482186              -9.4755 (LUMO)
        13                         -0.3002278              -8.1696
        14                         -0.2560557              -6.9676
        15                         -0.2315383              -6.3005
        16                          0.0959638               2.6113
        17                          0.2359105               6.4195
        18                          0.2826142               7.6903
        19                          0.3197231               8.7001
        20                          0.5808244              15.8050
      -------------------------------------------------------------
                  HL-Gap            0.0609410 Eh            1.6583 eV

     #   Z        covCN         q      C6AA      Î±(0)
     1   6 C      3.688     0.145    18.423     6.144
     2   7 N      1.851    -0.138    24.777     7.377
     3   6 C      2.864     0.000    28.018     8.676
     4   6 C      2.935     0.062    26.600     8.459
     5   6 C      2.082    -0.069    32.790     9.251

Wiberg/Mayer (AO) data.
largest (>0.10) Wiberg bond orders for each atom
          total WBO             WBO to atom ...

molecular dipole:
                 x           y           z       tot (Debye)
 q only:       -0.042      -0.076      -0.015
   full:       -0.047      -0.062       0.060       0.250

 projected vibrational frequencies (cm-1)
eigval :       -0.00    -0.00    -0.00     0.00     0.00     0.00
eigval :      241.55   410.86   525.76   686.41   924.58  1005.19
eigval :     1058.75  1329.33  1566.76

   temp. (K)  partition function   enthalpy   heat capacity  entropy
                                   cal/mol     cal/K/mol   cal/K/mol   J/K/mol
  10.00  VIB   1.00                    0.000      0.000     -0.003
         ROT   162.                   29.809      2.981     13.086
         INT   162.                   29.809      2.981     13.083
         TR   0.290E+25               49.681      4.968     21.419
         TOT                          79.4904     7.9490    34.5019   144.3560

       T/K    H(0)-H(T)+PV         H(T)/Eh          T*S/Eh         G(T)/Eh
   ------------------------------------------------------------------------
    298.15    0.502653E-02    0.226804E-01    0.310946E-01   -0.841413E-02
    120.00    0.160347E-02    0.192574E-01    0.104835E-01    0.877393E-02
    100.00    0.130841E-02    0.189623E-01    0.846752E-02    0.104948E-01
     80.00    0.102924E-02    0.186832E-01    0.652513E-02    0.121580E-01
     60.00    0.763531E-03    0.184174E-01    0.466479E-02    0.137527E-01
     40.00    0.506890E-03    0.181608E-01    0.290192E-02    0.152589E-01
     20.00    0.253352E-03    0.179073E-01    0.127525E-02    0.166320E-01
     10.00    0.126676E-03    0.177806E-01    0.549823E-03    0.172308E-01 (used)
   ------------------------------------------------------------------------

         :::::::::::::::::::::::::::::::::::::::::::::::::::::
         ::                  THERMODYNAMIC                  ::
         :::::::::::::::::::::::::::::::::::::::::::::::::::::
         :: total free energy         -11.070825671084 Eh   ::
         ::.................................................::
         :: total energy              -11.088056439208 Eh   ::
         :: zero point energy           0.017653915222 Eh   ::
         :: G(RRHO) w/o ZPVE           -0.000423147098 Eh   ::
         :: G(RRHO) contrib.            0.017230768124 Eh   ::
         :::::::::::::::::::::::::::::::::::::::::::::::::::::

           -------------------------------------------------
          | TOTAL ENERGY              -11.088056439208 Eh   |
          | TOTAL ENTHALPY            -11.070275847971 Eh   |
          | TOTAL FREE ENERGY         -11.070825671084 Eh   |
          | GRADIENT NORM               0.000547583495 Eh/Î± |
          | HOMO-LUMO GAP               1.658288369502 eV   |
           -------------------------------------------------

 * finished run on 2020/05/12 at 11:44:12.011
