   * xtb version 6.2.2 (9d81278992624c895f80dd42a50cac0aa55982e2) compiled by '@Darwin' on 04/03/2020
          program call               : xtb --input C3N1_1_S_3.input C3N1_1_S_3.xyz --ohess --molden --namespace C3N1_1_S_3 output.out
          number of atoms            :                     4
          number of electrons        :                    17
          charge                     :                     0
          spin                       :                   1.5

   ID    Z sym.   atoms
    1    6 C      1, 3, 4
    2    7 N      2

          :  Hamiltonian                  GFN2-xTB          :
 * total energy  :    -8.7513340 Eh     change       -0.7432650E-09 Eh
 * total energy  :    -8.7839910 Eh     change       -0.3265706E-01 Eh
 * total energy  :    -8.7943886 Eh     change       -0.1039756E-01 Eh
 * total energy  :    -8.7969358 Eh     change       -0.2547274E-02 Eh
 * total energy  :    -8.7970964 Eh     change       -0.1605512E-03 Eh
 * total energy  :    -8.7971378 Eh     change       -0.4144171E-04 Eh
 * total energy  :    -8.7981406 Eh     change       -0.1002796E-02 Eh
 * total energy  :    -8.8071504 Eh     change       -0.9009814E-02 Eh
 * total energy  :    -8.8128313 Eh     change       -0.5680900E-02 Eh
 * total energy  :    -8.8158933 Eh     change       -0.3061936E-02 Eh
 * total energy  :    -8.9240108 Eh     change       -0.2451266E-04 Eh
 * total energy  :    -8.9240228 Eh     change       -0.1200439E-04 Eh
 * total energy  :    -8.9240480 Eh     change       -0.2516821E-04 Eh
 * total energy  :    -8.9240609 Eh     change       -0.1291521E-04 Eh
 * total energy  :    -8.9240714 Eh     change       -0.1046084E-04 Eh
 * total energy  :    -8.9240806 Eh     change       -0.9164389E-05 Eh
 * total energy  :    -8.9240836 Eh     change       -0.3066394E-05 Eh
 * total energy  :    -8.9240829 Eh     change        0.6802951E-06 Eh
 * total energy  :    -8.9240866 Eh     change       -0.3610230E-05 Eh
   *** GEOMETRY OPTIMIZATION CONVERGED AFTER 44 ITERATIONS ***

 final structure:
================
4
 xtb: 6.2.2 (9d81278992624c895f80dd42a50cac0aa55982e2)
C         0.15666646863177   -1.83468036499250   -0.07597593360866
N        -0.25005161579539    0.56724040824623   -0.09205215862062
C        -0.23261046318889    1.79974070070518    0.10798572035279
C         0.32599561035251   -0.53229974395891    0.06004237187649

          :  Hamiltonian                  GFN2-xTB          :
         :: gradient norm              0.000499306113 Eh/a0 ::
         :: HOMO-LUMO gap              0.320290545210 eV    ::
         :: SCC energy                -9.074395128170 Eh    ::
         :: -> dispersion             -0.001826611864 Eh    ::
         :: repulsion energy           0.150308660546 Eh    ::

    * Orbital Energies and Occupations

         #    Occupation            Energy/Eh            Energy/eV
      -------------------------------------------------------------
         1        2.0000           -0.7224224             -19.6581
         2        2.0000           -0.6922555             -18.8372
         3        2.0000           -0.6483758             -17.6432
         4        2.0000           -0.5793146             -15.7640
         5        2.0000           -0.5757960             -15.6682
         6        2.0000           -0.4873548             -13.2616
         7        2.0000           -0.4800742             -13.0635
         8        1.0000           -0.4576791             -12.4541
         9        1.0000           -0.4331957             -11.7879
        10        0.9980           -0.3367101              -9.1623 (HOMO)
        11        0.0020           -0.3249396              -8.8421 (LUMO)
        12                         -0.2332222              -6.3463
        13                         -0.1976872              -5.3793
        14                          0.1491916               4.0597
        15                          0.5572161              15.1626
        16                          0.8327749              22.6610
      -------------------------------------------------------------
                  HL-Gap            0.0117705 Eh            0.3203 eV

     #   Z        covCN         q      C6AA      Î±(0)
     1   6 C      0.984    -0.103    39.225    10.521
     2   7 N      1.824     0.086    20.383     6.690
     3   6 C      0.927    -0.101    38.737    10.425
     4   6 C      1.908     0.118    28.205     8.577

Wiberg/Mayer (AO) data.
largest (>0.10) Wiberg bond orders for each atom
          total WBO             WBO to atom ...

molecular dipole:
                 x           y           z       tot (Debye)
 q only:        0.046      -0.011      -0.007
   full:        0.161      -0.060      -0.005       0.437

 projected vibrational frequencies (cm-1)
eigval :       -0.00    -0.00    -0.00     0.00     0.00     0.00
eigval :       40.87   231.73   468.92  1100.06  1403.91  1714.78

   temp. (K)  partition function   enthalpy   heat capacity  entropy
                                   cal/mol     cal/K/mol   cal/K/mol   J/K/mol
  10.00  VIB   1.00                    0.327      0.193      0.260
         ROT   52.4                   29.809      2.981     10.847
         INT   52.5                   30.136      3.174     11.108
         TR   0.210E+25               49.681      4.968     20.778
         TOT                          79.8178     8.1421    31.8861   133.4116

       T/K    H(0)-H(T)+PV         H(T)/Eh          T*S/Eh         G(T)/Eh
   ------------------------------------------------------------------------
    298.15    0.542606E-02    0.167264E-01    0.311164E-01   -0.143900E-01
    120.00    0.189232E-02    0.131926E-01    0.105045E-01    0.268814E-02
    100.00    0.154096E-02    0.128413E-01    0.845268E-02    0.438859E-02
     80.00    0.120203E-02    0.125023E-01    0.647804E-02    0.602430E-02
     60.00    0.876051E-03    0.121764E-01    0.459417E-02    0.758219E-02
     40.00    0.562555E-03    0.118629E-01    0.282259E-02    0.904028E-02
     20.00    0.263745E-03    0.115641E-01    0.121095E-02    0.103531E-01
     10.00    0.127198E-03    0.114275E-01    0.508138E-03    0.109194E-01 (used)
   ------------------------------------------------------------------------

         :::::::::::::::::::::::::::::::::::::::::::::::::::::
         ::                  THERMODYNAMIC                  ::
         :::::::::::::::::::::::::::::::::::::::::::::::::::::
         :: total free energy          -8.913167183006 Eh   ::
         ::.................................................::
         :: total energy               -8.924086553749 Eh   ::
         :: zero point energy           0.011300311002 Eh   ::
         :: G(RRHO) w/o ZPVE           -0.000380940259 Eh   ::
         :: G(RRHO) contrib.            0.010919370743 Eh   ::
         :::::::::::::::::::::::::::::::::::::::::::::::::::::

           -------------------------------------------------
          | TOTAL ENERGY               -8.924086553749 Eh   |
          | TOTAL ENTHALPY             -8.912659044932 Eh   |
          | TOTAL FREE ENERGY          -8.913167183006 Eh   |
          | GRADIENT NORM               0.000499447474 Eh/Î± |
          | HOMO-LUMO GAP               0.320291879267 eV   |
           -------------------------------------------------

 * finished run on 2020/05/12 at 11:45:04.212
