   * xtb version 6.2.2 (9d81278992624c895f80dd42a50cac0aa55982e2) compiled by '@Darwin' on 04/03/2020
          program call               : xtb --input H2C1N2_4_S_2.input H2C1N2_4_S_2.xyz --ohess --molden --namespace H2C1N2_4_S_2 output.out
          number of atoms            :                     5
          number of electrons        :                    16
          charge                     :                     0
          spin                       :                   1.0

   ID    Z sym.   atoms
    1    7 N      1, 3
    2    6 C      2
    3    1 H      4, 5

          :  Hamiltonian                  GFN2-xTB          :
 * total energy  :    -8.7139886 Eh     change        0.9902514E-09 Eh
 * total energy  :    -8.7557015 Eh     change       -0.4171289E-01 Eh
 * total energy  :    -8.7467493 Eh     change        0.8952237E-02 Eh
 * total energy  :    -8.7774800 Eh     change       -0.3073068E-01 Eh
 * total energy  :    -8.7833446 Eh     change       -0.5864579E-02 Eh
 * total energy  :    -8.7859978 Eh     change       -0.2653236E-02 Eh
 * total energy  :    -8.7873320 Eh     change       -0.1334254E-02 Eh
 * total energy  :    -8.7876404 Eh     change       -0.3083173E-03 Eh
 * total energy  :    -8.7877831 Eh     change       -0.1427274E-03 Eh
 * total energy  :    -8.7878264 Eh     change       -0.4332790E-04 Eh
 * total energy  :    -8.7878480 Eh     change       -0.2159541E-04 Eh
 * total energy  :    -8.7878555 Eh     change       -0.7508986E-05 Eh
 * total energy  :    -8.7878568 Eh     change       -0.1287859E-05 Eh
   *** GEOMETRY OPTIMIZATION CONVERGED AFTER 13 ITERATIONS ***

 final structure:
================
5
 xtb: 6.2.2 (9d81278992624c895f80dd42a50cac0aa55982e2)
N         0.07243129717814   -0.35795994339407    0.51843433868254
C        -1.14067475604378   -0.46677480123443    0.25092859674697
N         1.05829767596568    0.27685924111884    0.01000646111316
H        -1.68959881298718   -0.07607496755231   -0.59941295199455
H         1.69954459588714    0.62395047106197    0.72525155545189

          :  Hamiltonian                  GFN2-xTB          :
         :: gradient norm              0.000864897498 Eh/a0 ::
         :: HOMO-LUMO gap              2.549183341946 eV    ::
         :: SCC energy                -8.892584803817 Eh    ::
         :: -> dispersion             -0.001447911593 Eh    ::
         :: repulsion energy           0.104728018740 Eh    ::

    * Orbital Energies and Occupations

         #    Occupation            Energy/Eh            Energy/eV
      -------------------------------------------------------------
         1        2.0000           -0.6848647             -18.6361
         2        2.0000           -0.6387936             -17.3825
         3        2.0000           -0.5618304             -15.2882
         4        2.0000           -0.5513683             -15.0035
         5        2.0000           -0.5312414             -14.4558
         6        2.0000           -0.4973518             -13.5336
         7        2.0000           -0.4054091             -11.0317
         8        1.0000           -0.3841119             -10.4522
         9        1.0000           -0.3238751              -8.8131 (HOMO)
        10                         -0.2301944              -6.2639 (LUMO)
        11                          0.0907735               2.4701
        12                          0.1856797               5.0526
        13                          0.2231541               6.0723
        14                          0.6467561              17.5991
      -------------------------------------------------------------
                  HL-Gap            0.0936807 Eh            2.5492 eV

     #   Z        covCN         q      C6AA      Î±(0)
     1   7 N      1.891     0.033    21.343     6.849
     2   6 C      1.851    -0.065    32.910     9.267
     3   7 N      1.856    -0.206    26.317     7.604
     4   1 H      0.925     0.074     2.047     2.237
     5   1 H      0.860     0.165     1.306     1.791

Wiberg/Mayer (AO) data.
largest (>0.10) Wiberg bond orders for each atom
          total WBO             WBO to atom ...

molecular dipole:
                 x           y           z       tot (Debye)
Molecule has no symmetry elements
It seems to be the C1 point group
 q only:        0.025       0.110       0.140
   full:        0.090       0.258       0.114       0.752

 projected vibrational frequencies (cm-1)
eigval :       -0.00    -0.00    -0.00     0.00     0.00     0.00
eigval :      318.94   528.49   676.28   919.43  1166.26  1270.02
eigval :     1709.99  2911.22  3248.26

   temp. (K)  partition function   enthalpy   heat capacity  entropy
                                   cal/mol     cal/K/mol   cal/K/mol   J/K/mol
  10.00  VIB   1.00                    0.000      0.000     -0.001
         ROT   39.7                   29.809      2.981     10.295
         INT   39.7                   29.809      2.981     10.293
         TR   0.162E+25               49.681      4.968     20.259
         TOT                          79.4904     7.9490    30.5529   127.8334

       T/K    H(0)-H(T)+PV         H(T)/Eh          T*S/Eh         G(T)/Eh
   ------------------------------------------------------------------------
    298.15    0.458432E-02    0.336285E-01    0.285020E-01    0.512647E-02
    120.00    0.155783E-02    0.306020E-01    0.966611E-02    0.209359E-01
    100.00    0.128308E-02    0.303272E-01    0.780483E-02    0.225224E-01
     80.00    0.101831E-02    0.300625E-01    0.600774E-02    0.240547E-01
     60.00    0.760757E-03    0.298049E-01    0.428369E-02    0.255212E-01
     40.00    0.506719E-03    0.295509E-01    0.264987E-02    0.269010E-01
     20.00    0.253352E-03    0.292975E-01    0.114936E-02    0.281481E-01
     10.00    0.126676E-03    0.291708E-01    0.486892E-03    0.286839E-01 (used)
   ------------------------------------------------------------------------

         :::::::::::::::::::::::::::::::::::::::::::::::::::::
         ::                  THERMODYNAMIC                  ::
         :::::::::::::::::::::::::::::::::::::::::::::::::::::
         :: total free energy          -8.759172879774 Eh   ::
         ::.................................................::
         :: total energy               -8.787856813628 Eh   ::
         :: zero point energy           0.029044149668 Eh   ::
         :: G(RRHO) w/o ZPVE           -0.000360215815 Eh   ::
         :: G(RRHO) contrib.            0.028683933853 Eh   ::
         :::::::::::::::::::::::::::::::::::::::::::::::::::::

           -------------------------------------------------
          | TOTAL ENERGY               -8.787856813628 Eh   |
          | TOTAL ENTHALPY             -8.758685987944 Eh   |
          | TOTAL FREE ENERGY          -8.759172879774 Eh   |
          | GRADIENT NORM               0.000864815947 Eh/Î± |
          | HOMO-LUMO GAP               2.549181108527 eV   |
           -------------------------------------------------

 * finished run on 2020/05/12 at 11:45:21.553
