   * xtb version 6.2.2 (9d81278992624c895f80dd42a50cac0aa55982e2) compiled by '@Darwin' on 04/03/2020
          program call               : xtb --input H1C1_0_S_3.input H1C1_0_S_3.xyz --ohess --molden --namespace H1C1_0_S_3 output.out
          number of atoms            :                     2
          number of electrons        :                     5
          charge                     :                     0
          spin                       :                   1.5

   ID    Z sym.   atoms
    1    6 C      1
    2    1 H      2

          :  Hamiltonian                  GFN2-xTB          :
 * total energy  :    -2.3019528 Eh     change       -0.1207459E-08 Eh
 * total energy  :    -2.3028430 Eh     change       -0.8902650E-03 Eh
 * total energy  :    -2.3029441 Eh     change       -0.1010664E-03 Eh
 * total energy  :    -2.3029474 Eh     change       -0.3277601E-05 Eh
   *** GEOMETRY OPTIMIZATION CONVERGED AFTER 4 ITERATIONS ***

 final structure:
================
2
 xtb: 6.2.2 (9d81278992624c895f80dd42a50cac0aa55982e2)
C         0.53305924558664    0.00000000000000    0.00000000000000
H        -0.53305924558664   -0.00000000000000    0.00000000000000

          :  Hamiltonian                  GFN2-xTB          :
         :: gradient norm              0.000104517077 Eh/a0 ::
         :: HOMO-LUMO gap             14.938690161870 eV    ::
         :: SCC energy                -2.322983409025 Eh    ::
         :: -> dispersion             -0.000099879905 Eh    ::
         :: repulsion energy           0.020036042960 Eh    ::

    * Orbital Energies and Occupations
Molecule has the following symmetry elements: (Cinf) (sigma)
It seems to be the Cinfv point group

         #    Occupation            Energy/Eh            Energy/eV
      -------------------------------------------------------------
         1        2.0000           -0.5741010             -15.6221
         2        1.0000           -0.4230971             -11.5131
         3        1.0000           -0.3443157              -9.3693
         4        1.0000           -0.3443157              -9.3693 (HOMO)
         5                          0.2046710               5.5694 (LUMO)
      -------------------------------------------------------------
                  HL-Gap            0.5489868 Eh           14.9387 eV

     #   Z        covCN         q      C6AA      α(0)
     1   6 C      0.927    -0.157    40.649    10.679
     2   1 H      0.927     0.157     1.346     1.814

Wiberg/Mayer (AO) data.
largest (>0.10) Wiberg bond orders for each atom
          total WBO             WBO to atom ...

molecular dipole:
                 x           y           z       tot (Debye)
 q only:       -0.316       0.000       0.000
   full:       -0.388       0.000       0.000       0.987

   temp. (K)  partition function   enthalpy   heat capacity  entropy
                                   cal/mol     cal/K/mol   cal/K/mol   J/K/mol
  10.00  VIB   1.00                    0.000      0.000     -0.000
         ROT  0.436                   19.873      1.987      0.337
         INT  0.436                   19.873      1.987      0.337
         TR   0.279E+24               49.681      4.968     16.767
         TOT                          69.5541     6.9554    17.1034    71.5608

       T/K    H(0)-H(T)+PV         H(T)/Eh          T*S/Eh         G(T)/Eh
   ------------------------------------------------------------------------
    298.15    0.330475E-02    0.102597E-01    0.193421E-01   -0.908245E-02
    120.00    0.133010E-02    0.828502E-02    0.657474E-02    0.171028E-02
    100.00    0.110842E-02    0.806334E-02    0.527694E-02    0.278640E-02
     80.00    0.886732E-03    0.784166E-02    0.402375E-02    0.381791E-02
     60.00    0.665049E-03    0.761997E-02    0.282656E-02    0.479342E-02
     40.00    0.443366E-03    0.739829E-02    0.170466E-02    0.569363E-02
     20.00    0.221683E-03    0.717661E-02    0.698727E-03    0.647788E-02
     10.00    0.110842E-03    0.706576E-02    0.272561E-03    0.679320E-02 (used)
   ------------------------------------------------------------------------

         :::::::::::::::::::::::::::::::::::::::::::::::::::::
         ::                  THERMODYNAMIC                  ::
         :::::::::::::::::::::::::::::::::::::::::::::::::::::
         :: total free energy          -2.296154161708 Eh   ::
         ::.................................................::
         :: total energy               -2.302947366065 Eh   ::
         :: zero point energy           0.006954923463 Eh   ::
         :: G(RRHO) w/o ZPVE           -0.000161719106 Eh   ::
         :: G(RRHO) contrib.            0.006793204357 Eh   ::
         :::::::::::::::::::::::::::::::::::::::::::::::::::::

           -------------------------------------------------
          | TOTAL ENERGY               -2.302947366065 Eh   |
          | TOTAL ENTHALPY             -2.295881601088 Eh   |
          | TOTAL FREE ENERGY          -2.296154161708 Eh   |
          | GRADIENT NORM               0.000104512636 Eh/α |
          | HOMO-LUMO GAP              14.938689971828 eV   |
           -------------------------------------------------

 * finished run on 2020/05/12 at 11:44:28.915
