   * xtb version 6.2.2 (9d81278992624c895f80dd42a50cac0aa55982e2) compiled by '@Darwin' on 04/03/2020
          program call               : xtb --input C1O2_0_S_0.input C1O2_0_S_0.xyz --ohess --molden --namespace C1O2_0_S_0 output.out
          number of atoms            :                     3
          number of electrons        :                    16
          charge                     :                     0
          spin                       :                   0.0

   ID    Z sym.   atoms
    1    6 C      1
    2    8 O      2, 3

          :  Hamiltonian                  GFN2-xTB          :
 * total energy  :   -10.0779377 Eh     change       -0.1909406E-10 Eh
 * total energy  :   -10.2251541 Eh     change       -0.1472164E+00 Eh
 * total energy  :   -10.2407186 Eh     change       -0.1556450E-01 Eh
 * total energy  :   -10.3039006 Eh     change       -0.6318194E-01 Eh
 * total energy  :   -10.3072571 Eh     change       -0.3356559E-02 Eh
 * total energy  :   -10.3084379 Eh     change       -0.1180795E-02 Eh
 * total energy  :   -10.3084520 Eh     change       -0.1406455E-04 Eh
 * total energy  :   -10.3084522 Eh     change       -0.2226716E-06 Eh
   *** GEOMETRY OPTIMIZATION CONVERGED AFTER 8 ITERATIONS ***

 final structure:
================
3
 xtb: 6.2.2 (9d81278992624c895f80dd42a50cac0aa55982e2)
C        -0.00000010421960    0.00002600049431    0.00000000000000
O         1.14350956411796    0.00086565666765    0.00000000000000
O        -1.14350945989836   -0.00089165716196    0.00000000000000

          :  Hamiltonian                  GFN2-xTB          :
         :: gradient norm              0.000465383723 Eh/a0 ::
         :: HOMO-LUMO gap              8.452034681028 eV    ::
         :: SCC energy               -10.430738761562 Eh    ::
         :: -> dispersion             -0.000687158926 Eh    ::
         :: repulsion energy           0.122286561608 Eh    ::

    * Orbital Energies and Occupations

         #    Occupation            Energy/Eh            Energy/eV
      -------------------------------------------------------------
         1        2.0000           -0.8108425             -22.0641
         2        2.0000           -0.7967023             -21.6794
         3        2.0000           -0.6648102             -18.0904
         4        2.0000           -0.6635058             -18.0549
         5        2.0000           -0.6635058             -18.0549
         6        2.0000           -0.5998191             -16.3219
         7        2.0000           -0.5344428             -14.5429
         8        2.0000           -0.5344428             -14.5429 (HOMO)
         9                         -0.2238363              -6.0909 (LUMO)
        10                         -0.2238363              -6.0909
        11                          0.3103756               8.4457
        12                          1.3653051              37.1518
      -------------------------------------------------------------
                  HL-Gap            0.3106066 Eh            8.4520 eV

     #   Z        covCN         q      C6AA      Î±(0)
     1   6 C      1.711     0.464    21.599     7.524
     2   8 O      0.856    -0.232    18.600     5.782
     3   8 O      0.856    -0.232    18.600     5.782

Wiberg/Mayer (AO) data.
largest (>0.10) Wiberg bond orders for each atom
          total WBO             WBO to atom ...

molecular dipole:
                 x           y           z       tot (Debye)
 q only:       -0.000       0.000      -0.000
   full:       -0.000       0.000      -0.000       0.000

   temp. (K)  partition function   enthalpy   heat capacity  entropy
                                   cal/mol     cal/K/mol   cal/K/mol   J/K/mol
  10.00  VIB   1.00                    0.000      0.000     -0.000
         ROT   8.63                   19.873      1.987      6.269
         INT   8.63                   19.873      1.987      6.269
         TR   0.174E+25               49.681      4.968     20.396
         TOT                          69.5541     6.9554    26.6650   111.5662

       T/K    H(0)-H(T)+PV         H(T)/Eh          T*S/Eh         G(T)/Eh
   ------------------------------------------------------------------------
    298.15    0.363175E-02    0.155222E-01    0.243208E-01   -0.879861E-02
    120.00    0.133422E-02    0.132246E-01    0.840796E-02    0.481668E-02
    100.00    0.110939E-02    0.129998E-01    0.680179E-02    0.619802E-02
     80.00    0.886845E-03    0.127773E-01    0.524288E-02    0.753438E-02
     60.00    0.665052E-03    0.125555E-01    0.374081E-02    0.881465E-02
     40.00    0.443366E-03    0.123338E-01    0.231416E-02    0.100196E-01
     20.00    0.221683E-03    0.121121E-01    0.100347E-02    0.111086E-01
     10.00    0.110842E-03    0.120013E-01    0.424933E-03    0.115763E-01 (used)
   ------------------------------------------------------------------------

         :::::::::::::::::::::::::::::::::::::::::::::::::::::
         ::                  THERMODYNAMIC                  ::
         :::::::::::::::::::::::::::::::::::::::::::::::::::::
         :: total free energy         -10.296875881247 Eh   ::
         ::.................................................::
         :: total energy              -10.308452201565 Eh   ::
         :: zero point energy           0.011890411907 Eh   ::
         :: G(RRHO) w/o ZPVE           -0.000314091588 Eh   ::
         :: G(RRHO) contrib.            0.011576320319 Eh   ::
         :::::::::::::::::::::::::::::::::::::::::::::::::::::

           -------------------------------------------------
          | TOTAL ENERGY              -10.308452201565 Eh   |
          | TOTAL ENTHALPY            -10.296450948145 Eh   |
          | TOTAL FREE ENERGY         -10.296875881247 Eh   |
          | GRADIENT NORM               0.000465383824 Eh/Î± |
          | HOMO-LUMO GAP               8.452034630217 eV   |
           -------------------------------------------------

 * finished run on 2020/05/12 at 11:44:49.006
