   * xtb version 6.2.2 (9d81278992624c895f80dd42a50cac0aa55982e2) compiled by '@Darwin' on 04/03/2020
          program call               : xtb --input H1C3N1_8_S_0.input H1C3N1_8_S_0.xyz --ohess --molden --namespace H1C3N1_8_S_0 output.out
          number of atoms            :                     5
          number of electrons        :                    18
          charge                     :                     0
          spin                       :                   0.0

   ID    Z sym.   atoms
    1    6 C      1-3
    2    7 N      4
    3    1 H      5

          :  Hamiltonian                  GFN2-xTB          :
 * total energy  :    -9.4345175 Eh     change       -0.1091591E-08 Eh
 * total energy  :    -9.5679618 Eh     change       -0.1334443E+00 Eh
 * total energy  :    -9.5921750 Eh     change       -0.2421318E-01 Eh
 * total energy  :    -9.6329718 Eh     change       -0.4079682E-01 Eh
 * total energy  :    -9.6398016 Eh     change       -0.6829774E-02 Eh
 * total energy  :    -9.6329840 Eh     change        0.6817545E-02 Eh
 * total energy  :    -9.6465835 Eh     change       -0.1359951E-01 Eh
 * total energy  :    -9.6332111 Eh     change        0.1337241E-01 Eh
 * total energy  :    -9.6489200 Eh     change       -0.1570890E-01 Eh
 * total energy  :    -9.6491045 Eh     change       -0.1845321E-03 Eh
 * total energy  :    -9.6522212 Eh     change       -0.8379583E-03 Eh
 * total energy  :    -9.6530312 Eh     change       -0.8100125E-03 Eh
 * total energy  :    -9.6537926 Eh     change       -0.7614694E-03 Eh
 * total energy  :    -9.6542418 Eh     change       -0.4491827E-03 Eh
 * total energy  :    -9.6543687 Eh     change       -0.1269019E-03 Eh
 * total energy  :    -9.6543342 Eh     change        0.3450824E-04 Eh
 * total energy  :    -9.6544278 Eh     change       -0.9363139E-04 Eh
 * total energy  :    -9.6544350 Eh     change       -0.7120861E-05 Eh
 * total energy  :    -9.6544368 Eh     change       -0.1787926E-05 Eh
   *** GEOMETRY OPTIMIZATION CONVERGED AFTER 20 ITERATIONS ***

 final structure:
================
5
 xtb: 6.2.2 (9d81278992624c895f80dd42a50cac0aa55982e2)
C         2.37876189531389   -0.04922447611424    0.68703665303417
C         1.15061854081499   -0.04142388171886    0.40656924348946
C        -0.12194022248089   -0.00261211930735    0.14048766443087
N        -1.24077643240990   -0.12807695652102   -0.23275165176664
H        -2.16666378123807    0.22133743366149   -0.14554190918787

          :  Hamiltonian                  GFN2-xTB          :
         :: gradient norm              0.000806859520 Eh/a0 ::
         :: HOMO-LUMO gap              2.593231335956 eV    ::
         :: SCC energy                -9.888904451140 Eh    ::
         :: -> dispersion             -0.002047080822 Eh    ::
         :: repulsion energy           0.234468147287 Eh    ::

    * Orbital Energies and Occupations

         #    Occupation            Energy/Eh            Energy/eV
      -------------------------------------------------------------
         1        2.0000           -0.6889683             -18.7478
         2        2.0000           -0.6381715             -17.3655
         3        2.0000           -0.6058249             -16.4853
         4        2.0000           -0.5716717             -15.5560
         5        2.0000           -0.5379681             -14.6389
         6        2.0000           -0.5332287             -14.5099
         7        2.0000           -0.4231023             -11.5132
         8        2.0000           -0.4192161             -11.4075
         9        2.0000           -0.3946166             -10.7381 (HOMO)
        10                         -0.2993173              -8.1448 (LUMO)
        11                         -0.2864897              -7.7958
        12                         -0.1065571              -2.8996
        13                         -0.0951164              -2.5882
        14                          0.0269886               0.7344
        15                          0.2926583               7.9636
        16                          0.8402483              22.8643
        17                          1.3910823              37.8533
      -------------------------------------------------------------
                  HL-Gap            0.0952993 Eh            2.5932 eV

     #   Z        covCN         q      C6AA      Î±(0)
     1   6 C      0.982    -0.171    41.574    10.831
     2   6 C      1.963    -0.032    31.927     9.125
     3   6 C      1.893     0.157    27.326     8.443
     4   7 N      1.773    -0.170    25.448     7.470
     5   1 H      0.861     0.216     1.027     1.588

Wiberg/Mayer (AO) data.
largest (>0.10) Wiberg bond orders for each atom
          total WBO             WBO to atom ...

molecular dipole:
                 x           y           z       tot (Debye)
 q only:       -1.360       0.149      -0.190
   full:       -2.018       0.275      -0.234       5.210

 projected vibrational frequencies (cm-1)
eigval :       -0.00    -0.00    -0.00    -0.00     0.00     0.00
eigval :      169.01   191.24   497.11   527.92   550.38  1003.31
eigval :     1968.25  2269.94  3613.10

   temp. (K)  partition function   enthalpy   heat capacity  entropy
                                   cal/mol     cal/K/mol   cal/K/mol   J/K/mol
  10.00  VIB   1.00                    0.000      0.000     -0.014
         ROT   28.0                   29.809      2.981      9.604
         INT   28.0                   29.809      2.981      9.590
         TR   0.217E+25               49.681      4.968     20.838
         TOT                          79.4904     7.9490    30.4283   127.3122

       T/K    H(0)-H(T)+PV         H(T)/Eh          T*S/Eh         G(T)/Eh
   ------------------------------------------------------------------------
    298.15    0.561956E-02    0.302016E-01    0.303978E-01   -0.196248E-03
    120.00    0.174849E-02    0.263305E-01    0.992374E-02    0.164068E-01
    100.00    0.140427E-02    0.259863E-01    0.795646E-02    0.180298E-01
     80.00    0.108160E-02    0.256636E-01    0.607760E-02    0.195860E-01
     60.00    0.782673E-03    0.253647E-01    0.430071E-02    0.210640E-01
     40.00    0.509369E-03    0.250914E-01    0.264602E-02    0.224454E-01
     20.00    0.253357E-03    0.248354E-01    0.114565E-02    0.236897E-01
     10.00    0.126676E-03    0.247087E-01    0.484906E-03    0.242238E-01 (used)
   ------------------------------------------------------------------------

         :::::::::::::::::::::::::::::::::::::::::::::::::::::
         ::                  THERMODYNAMIC                  ::
         :::::::::::::::::::::::::::::::::::::::::::::::::::::
         :: total free energy          -9.630212955354 Eh   ::
         ::.................................................::
         :: total energy               -9.654436753505 Eh   ::
         :: zero point energy           0.024582028549 Eh   ::
         :: G(RRHO) w/o ZPVE           -0.000358230398 Eh   ::
         :: G(RRHO) contrib.            0.024223798151 Eh   ::
         :::::::::::::::::::::::::::::::::::::::::::::::::::::

           -------------------------------------------------
          | TOTAL ENERGY               -9.654436753505 Eh   |
          | TOTAL ENTHALPY             -9.629728048940 Eh   |
          | TOTAL FREE ENERGY          -9.630212955354 Eh   |
          | GRADIENT NORM               0.000807497069 Eh/Î± |
          | HOMO-LUMO GAP               2.593225995838 eV   |
           -------------------------------------------------

 * finished run on 2020/05/12 at 11:44:53.380
