   * xtb version 6.2.2 (9d81278992624c895f80dd42a50cac0aa55982e2) compiled by '@Darwin' on 04/03/2020
          program call               : xtb --input H2C1O1_1_S_2.input H2C1O1_1_S_2.xyz --ohess --molden --namespace H2C1O1_1_S_2 output.out
          number of atoms            :                     4
          number of electrons        :                    12
          charge                     :                     0
          spin                       :                   1.0

   ID    Z sym.   atoms
    1    8 O      1
    2    6 C      2
    3    1 H      3, 4

          :  Hamiltonian                  GFN2-xTB          :
 * total energy  :    -7.0299575 Eh     change       -0.4341540E-09 Eh
 * total energy  :    -7.0411574 Eh     change       -0.1119997E-01 Eh
 * total energy  :    -7.0427309 Eh     change       -0.1573480E-02 Eh
 * total energy  :    -7.0430762 Eh     change       -0.3452683E-03 Eh
 * total energy  :    -7.0430891 Eh     change       -0.1297342E-04 Eh
 * total energy  :    -7.0430901 Eh     change       -0.9808837E-06 Eh
   *** GEOMETRY OPTIMIZATION CONVERGED AFTER 6 ITERATIONS ***

 final structure:
================
4
 xtb: 6.2.2 (9d81278992624c895f80dd42a50cac0aa55982e2)
O         1.21559738733737   -0.12568400431362   -0.04737578071165
C        -0.02283613938237    0.00126320682899    0.22390050424404
H        -0.50498666286538    0.94452218010978   -0.08391922301658
H        -0.68777458508962   -0.82010138262515   -0.09260650051581

          :  Hamiltonian                  GFN2-xTB          :
         :: gradient norm              0.000321848716 Eh/a0 ::
         :: HOMO-LUMO gap             11.970924454821 eV    ::
         :: SCC energy                -7.095347225236 Eh    ::
         :: -> dispersion             -0.000624174335 Eh    ::
         :: repulsion energy           0.052257098425 Eh    ::

    * Orbital Energies and Occupations

         #    Occupation            Energy/Eh            Energy/eV
      -------------------------------------------------------------
         1        2.0000           -0.7091134             -19.2960
Molecule has the following symmetry elements: (sigma)
It seems to be the Cs point group
         2        2.0000           -0.6150325             -16.7359
         3        2.0000           -0.5524856             -15.0339
         4        2.0000           -0.5398510             -14.6901
         5        2.0000           -0.5119075             -13.9297
         6        1.0000           -0.4179632             -11.3734
         7        1.0000           -0.3030854              -8.2474 (HOMO)
         8                          0.1368380               3.7236 (LUMO)
         9                          0.1852317               5.0404
        10                          0.3548810               9.6568
      -------------------------------------------------------------
                  HL-Gap            0.4399234 Eh           11.9709 eV

     #   Z        covCN         q      C6AA      Î±(0)
     1   8 O      0.855    -0.261    19.095     5.859
     2   6 C      2.701     0.011    27.756     8.623
     3   1 H      0.923     0.125     1.572     1.961
     4   1 H      0.923     0.125     1.572     1.961

Wiberg/Mayer (AO) data.
largest (>0.10) Wiberg bond orders for each atom
          total WBO             WBO to atom ...

molecular dipole:
                 x           y           z       tot (Debye)
 q only:       -0.883       0.092      -0.014
   full:       -1.057       0.110      -0.194       2.745

 projected vibrational frequencies (cm-1)
eigval :       -0.00    -0.00    -0.00    -0.00     0.00     0.00
eigval :      741.75   813.34  1197.55  1508.09  2699.71  2753.27

   temp. (K)  partition function   enthalpy   heat capacity  entropy
                                   cal/mol     cal/K/mol   cal/K/mol   J/K/mol
  10.00  VIB   1.00                    0.000      0.000     -0.000
         ROT   9.56                   29.809      2.981      7.468
         INT   9.56                   29.809      2.981      7.468
         TR   0.978E+24               49.681      4.968     19.257
         TOT                          79.4904     7.9490    26.7245   111.8152

       T/K    H(0)-H(T)+PV         H(T)/Eh          T*S/Eh         G(T)/Eh
   ------------------------------------------------------------------------
    298.15    0.397018E-02    0.260996E-01    0.257587E-01    0.340944E-03
    120.00    0.152080E-02    0.236503E-01    0.888754E-02    0.147627E-01
    100.00    0.126687E-02    0.233963E-01    0.717488E-02    0.162214E-01
     80.00    0.101342E-02    0.231429E-01    0.551375E-02    0.176291E-01
     60.00    0.760056E-03    0.228895E-01    0.391672E-02    0.189728E-01
     40.00    0.506704E-03    0.226362E-01    0.240576E-02    0.202304E-01
     20.00    0.253352E-03    0.223828E-01    0.102732E-02    0.213555E-01
     10.00    0.126676E-03    0.222561E-01    0.425882E-03    0.218303E-01 (used)
   ------------------------------------------------------------------------

         :::::::::::::::::::::::::::::::::::::::::::::::::::::
         ::                  THERMODYNAMIC                  ::
         :::::::::::::::::::::::::::::::::::::::::::::::::::::
         :: total free energy          -7.021259870731 Eh   ::
         ::.................................................::
         :: total energy               -7.043090122971 Eh   ::
         :: zero point energy           0.022129457886 Eh   ::
         :: G(RRHO) w/o ZPVE           -0.000299205646 Eh   ::
         :: G(RRHO) contrib.            0.021830252241 Eh   ::
         :::::::::::::::::::::::::::::::::::::::::::::::::::::

           -------------------------------------------------
          | TOTAL ENERGY               -7.043090122971 Eh   |
          | TOTAL ENTHALPY             -7.020833989069 Eh   |
          | TOTAL FREE ENERGY          -7.021259870731 Eh   |
          | GRADIENT NORM               0.000321827179 Eh/Î± |
          | HOMO-LUMO GAP              11.970924790410 eV   |
           -------------------------------------------------

 * finished run on 2020/05/12 at 11:45:07.456
