   * xtb version 6.2.2 (9d81278992624c895f80dd42a50cac0aa55982e2) compiled by '@Darwin' on 04/03/2020
          program call               : xtb --input H2C1N2_11_S_0.input H2C1N2_11_S_0.xyz --ohess --molden --namespace H2C1N2_11_S_0 output.out
          number of atoms            :                     5
          number of electrons        :                    16
          charge                     :                     0
          spin                       :                   0.0

   ID    Z sym.   atoms
    1    7 N      1, 3
    2    6 C      2
    3    1 H      4, 5

          :  Hamiltonian                  GFN2-xTB          :
 * total energy  :    -8.7992811 Eh     change       -0.3991563E-09 Eh
 * total energy  :    -8.8319260 Eh     change       -0.3264496E-01 Eh
 * total energy  :    -8.8493587 Eh     change       -0.1743265E-01 Eh
 * total energy  :    -8.8600745 Eh     change       -0.1071580E-01 Eh
 * total energy  :    -8.8658906 Eh     change       -0.5816111E-02 Eh
 * total energy  :    -8.8700712 Eh     change       -0.4180610E-02 Eh
 * total energy  :    -8.8705896 Eh     change       -0.5184499E-03 Eh
 * total energy  :    -8.8706305 Eh     change       -0.4088522E-04 Eh
 * total energy  :    -8.8707050 Eh     change       -0.7443972E-04 Eh
 * total energy  :    -8.8707200 Eh     change       -0.1501928E-04 Eh
 * total energy  :    -8.8707269 Eh     change       -0.6863956E-05 Eh
 * total energy  :    -8.8707274 Eh     change       -0.5287916E-06 Eh
   *** GEOMETRY OPTIMIZATION CONVERGED AFTER 12 ITERATIONS ***

 final structure:
================
5
 xtb: 6.2.2 (9d81278992624c895f80dd42a50cac0aa55982e2)
N        -0.72966612052516   -0.09606840706541    0.44268427820547
C         0.57937945467189    0.04503473835501    0.01599568983294
N         0.00058602701191    1.12073878255573   -0.19562808214671
H        -1.33844486250452   -0.56053191061862   -0.23728889534580
H         1.48814550134588   -0.50917320322671   -0.02576199054591

          :  Hamiltonian                  GFN2-xTB          :
         :: gradient norm              0.000382905046 Eh/a0 ::
         :: HOMO-LUMO gap              3.291963789857 eV    ::
         :: SCC energy                -8.980369514263 Eh    ::
         :: -> dispersion             -0.001449092385 Eh    ::
         :: repulsion energy           0.109642108528 Eh    ::

    * Orbital Energies and Occupations

         #    Occupation            Energy/Eh            Energy/eV
      -------------------------------------------------------------
         1        2.0000           -0.7279245             -19.8078
         2        2.0000           -0.6184709             -16.8295
         3        2.0000           -0.6060521             -16.4915
         4        2.0000           -0.5692081             -15.4889
         5        2.0000           -0.5152855             -14.0216
         6        2.0000           -0.4922821             -13.3957
         7        2.0000           -0.4498534             -12.2411
         8        2.0000           -0.4002244             -10.8907 (HOMO)
         9                         -0.2792469              -7.5987 (LUMO)
        10                         -0.1780956              -4.8462
        11                          0.0215258               0.5857
        12                          0.1236355               3.3643
        13                          0.1440252               3.9191
        14                          0.7257136              19.7477
      -------------------------------------------------------------
                  HL-Gap            0.1209775 Eh            3.2920 eV

     #   Z        covCN         q      C6AA      Î±(0)
     1   7 N      2.721    -0.217    25.727     7.533
     2   6 C      2.747     0.177    24.183     8.052
     3   7 N      1.862    -0.170    25.489     7.483
     4   1 H      0.859     0.148     1.415     1.863
     5   1 H      0.927     0.062     2.176     2.307

Wiberg/Mayer (AO) data.
largest (>0.10) Wiberg bond orders for each atom
          total WBO             WBO to atom ...

molecular dipole:
                 x           y           z       tot (Debye)
 q only:        0.293      -0.522      -0.183
   full:        0.504      -0.951      -0.444       2.960

 projected vibrational frequencies (cm-1)
eigval :       -0.00    -0.00    -0.00    -0.00     0.00     0.00
eigval :      695.73   783.30   932.09  1038.10  1166.55  1256.81
eigval :     1819.10  3206.24  3224.27

   temp. (K)  partition function   enthalpy   heat capacity  entropy
                                   cal/mol     cal/K/mol   cal/K/mol   J/K/mol
  10.00  VIB   1.00                    0.000      0.000     -0.000
         ROT   42.3                   29.809      2.981     10.423
         INT   42.3                   29.809      2.981     10.423
         TR   0.162E+25               49.681      4.968     20.259
         TOT                          79.4904     7.9490    30.6820   128.3734

       T/K    H(0)-H(T)+PV         H(T)/Eh          T*S/Eh         G(T)/Eh
   ------------------------------------------------------------------------
    298.15    0.408795E-02    0.362607E-01    0.277856E-01    0.847504E-02
    120.00    0.152125E-02    0.336940E-01    0.964486E-02    0.240491E-01
    100.00    0.126696E-02    0.334397E-01    0.780566E-02    0.256340E-01
     80.00    0.101342E-02    0.331861E-01    0.601830E-02    0.271678E-01
     60.00    0.760056E-03    0.329328E-01    0.429512E-02    0.286376E-01
     40.00    0.506704E-03    0.326794E-01    0.265803E-02    0.300214E-01
     20.00    0.253352E-03    0.324261E-01    0.115346E-02    0.312726E-01
     10.00    0.126676E-03    0.322994E-01    0.488949E-03    0.318104E-01 (used)
   ------------------------------------------------------------------------

         :::::::::::::::::::::::::::::::::::::::::::::::::::::
         ::                  THERMODYNAMIC                  ::
         :::::::::::::::::::::::::::::::::::::::::::::::::::::
         :: total free energy          -8.838916936087 Eh   ::
         ::.................................................::
         :: total energy               -8.870727379509 Eh   ::
         :: zero point energy           0.032172716012 Eh   ::
         :: G(RRHO) w/o ZPVE           -0.000362272590 Eh   ::
         :: G(RRHO) contrib.            0.031810443422 Eh   ::
         :::::::::::::::::::::::::::::::::::::::::::::::::::::

           -------------------------------------------------
          | TOTAL ENERGY               -8.870727379509 Eh   |
          | TOTAL ENTHALPY             -8.838427987481 Eh   |
          | TOTAL FREE ENERGY          -8.838916936087 Eh   |
          | GRADIENT NORM               0.000382884066 Eh/Î± |
          | HOMO-LUMO GAP               3.291964205115 eV   |
           -------------------------------------------------

 * finished run on 2020/05/12 at 11:45:23.663
