 Gaussian 16, Revision B.01,

 --------------------------------------------------------
 #P M062X/cc-pvtz nosymm opt(noeigentest) optcyc=120 freq
 --------------------------------------------------------

 -----
 Title
 -----
 Symbolic Z-matrix:
 Charge =  0 Multiplicity = 2

 SCF Done:  E(UM062X) =  -75.7304842532     A.U. after   41 cycles
 SCF Done:  E(UM062X) =  -75.7304859559     A.U. after  105 cycles
 Optimization completed.
    -- Stationary point found.
 Normal termination of Gaussian 16 at Fri Sep 25 11:23:40 2020.

 -------------------------------------------------------------------
 #P Geom=AllCheck Guess=TCheck SCRF=Check GenChk UM062X/CC-pVTZ Freq
 -------------------------------------------------------------------

 Structure from the checkpoint file:  "input.chk"
 -----
 Title
 -----
 Charge =  0 Multiplicity = 2

 SCF Done:  E(UM062X) =  -75.7304859559     A.U. after    1 cycles

  Exact polarizability:   3.980   0.042   3.885   0.000  -0.000   7.035
 Approx polarizability:   3.833  -0.028   3.897   0.000   0.000   7.388

                      1
                      A
 Frequencies --   3774.9621
 Red. masses --      1.0671
 Frc consts  --      8.9594
 IR Inten    --     18.5675

 - Thermochemistry -
 -------------------
 Temperature   298.150 Kelvin.  Pressure   1.00000 Atm.
 Atom     1 has atomic number  8 and mass  15.99491

 Molecular mass:    17.00274 amu.
 Principal axes and moments of inertia in atomic units:
                           1         2         3
     Eigenvalues --     0.00000   3.19459   3.19459
           X            0.00000  -0.00000   1.00000
           Y            0.00000   1.00000   0.00000
           Z            1.00000   0.00000   0.00000
 This molecule is a prolate symmetric top.
 Rotational symmetry number  1.
 Rotational temperature (Kelvin)     27.11273
 Rotational constant (GHZ):         564.937550
 Zero-point vibrational energy      22579.3 (Joules/Mol)
                                    5.39658 (Kcal/Mol)
 Vibrational temperatures:   5431.33
          (Kelvin)

 Zero-point correction=                           0.008600 (Hartree/Particle)
 Thermal correction to Energy=                    0.010960
 Thermal correction to Enthalpy=                  0.011905
 Thermal correction to Gibbs Free Energy=        -0.008320
 Sum of electronic and zero-point Energies=            -75.721886
 Sum of electronic and thermal Energies=               -75.719525
 Sum of electronic and thermal Enthalpies=             -75.718581
 Sum of electronic and thermal Free Energies=          -75.738806

                     E (Thermal)             CV                S
                      KCal/Mol        Cal/Mol-Kelvin    Cal/Mol-Kelvin
 Total                    6.878              4.968             42.566
 Electronic               0.000              0.000              1.377
 Translational            0.889              2.981             34.437
 Rotational               0.592              1.987              6.752
 Vibrational              5.397              0.000              0.000

 Optimization completed.
    -- Stationary point found.
 Normal termination of Gaussian 16 at Fri Sep 25 11:23:50 2020.
 Gaussian 16:  ES64L-G16RevB.01 20-Dec-2017

 -----------------------------------------------
 #P CCSD(T)/aug-cc-pvtz geom=allcheck guess=read
 -----------------------------------------------

 Structure from the checkpoint file:  "input.chk"
 -----
 Title
 -----
 Charge =  0 Multiplicity = 2

                         Standard orientation:
 ---------------------------------------------------------------------
 Center     Atomic      Atomic             Coordinates (Angstroms)
 Number     Number       Type             X           Y           Z
 ---------------------------------------------------------------------
      1          8           0        0.000000    0.000000    0.107930
      2          1           0        0.000000    0.000000   -0.863439
 ---------------------------------------------------------------------

 SCF Done:  E(UHF) =  -75.4215822635     A.U. after   11 cycles
 E2 =    -0.2047515748D+00 EUMP2 =    -0.75626333838227D+02
 CCSD(T)
 CCSD(T)= -0.75645582699D+02

 Unable to determine electronic state:  an orbital has unidentified symmetry.
 Alpha  occ. eigenvalues --  -20.64123  -1.38968  -0.68252  -0.65857  -0.56167
 Alpha virt. eigenvalues --    0.02982   0.13633   0.15281   0.16214   0.18388
 Alpha virt. eigenvalues --    0.26249   0.26861   0.27513   0.42601   0.62966
 Alpha virt. eigenvalues --    0.63868   0.64945   0.71445   0.72915   0.85392

  Beta  occ. eigenvalues --  -20.60153  -1.23124  -0.63864  -0.51360
  Beta virt. eigenvalues --    0.03098   0.06337   0.13891   0.16435   0.18809
  Beta virt. eigenvalues --    0.21033   0.26574   0.27503   0.28947   0.43632
  Beta virt. eigenvalues --    0.64494   0.65533   0.65651   0.72733   0.73103

 Mulliken charges and spin densities:
               1          2
     1  O   -0.272717   1.041020
     2  H    0.272717  -0.041020
 Sum of Mulliken charges =  -0.00000   1.00000

 Dipole moment (field-independent basis, Debye):
    X=             -0.0000    Y=             -0.0000    Z=             -1.7624  Tot=              1.7624
 Quadrupole moment (field-independent basis, Debye-Ang):
   XX=             -6.5665   YY=             -5.5801   ZZ=             -4.5319
   XY=              0.4327   XZ=             -0.0000   YZ=             -0.0000

 =-75.63932\CCSD=-75.6396968\CCSD(T)=-75.6455827\S2=0.757106\S2-1=0.751
 Normal termination of Gaussian 16 at Fri Sep 25 11:24:06 2020.
