   * xtb version 6.2.2 (9d81278992624c895f80dd42a50cac0aa55982e2) compiled by '@Darwin' on 04/03/2020
          program call               : xtb --input C4N1_6_S_3.input C4N1_6_S_3.xyz --ohess --molden --namespace C4N1_6_S_3 output.out
          number of atoms            :                     5
          number of electrons        :                    21
          charge                     :                     0
          spin                       :                   1.5

   ID    Z sym.   atoms
    1    7 N      1
    2    6 C      2-5

          :  Hamiltonian                  GFN2-xTB          :
 * total energy  :   -10.8538961 Eh     change        0.2238664E-08 Eh
 * total energy  :   -10.9688723 Eh     change       -0.1149762E+00 Eh
 * total energy  :   -10.9992000 Eh     change       -0.3032775E-01 Eh
 * total energy  :   -11.0577536 Eh     change       -0.5855360E-01 Eh
 * total energy  :   -11.0694809 Eh     change       -0.1172730E-01 Eh
 * total energy  :   -11.0792977 Eh     change       -0.9816740E-02 Eh
 * total energy  :   -11.0614488 Eh     change        0.1784890E-01 Eh
 * total energy  :   -11.0844293 Eh     change       -0.2298054E-01 Eh
 * total energy  :   -11.0827233 Eh     change        0.1706014E-02 Eh
 * total energy  :   -11.0888352 Eh     change       -0.6111886E-02 Eh
 * total energy  :   -11.0958554 Eh     change       -0.1203795E-03 Eh
 * total energy  :   -11.0959666 Eh     change       -0.1111872E-03 Eh
 * total energy  :   -11.0959999 Eh     change       -0.3325599E-04 Eh
 * total energy  :   -11.0960030 Eh     change       -0.3099052E-05 Eh
 * total energy  :   -11.0960108 Eh     change       -0.7852174E-05 Eh
 * total energy  :   -11.0960184 Eh     change       -0.7578563E-05 Eh
 * total energy  :   -11.0960249 Eh     change       -0.6493089E-05 Eh
 * total energy  :   -11.0960300 Eh     change       -0.5138857E-05 Eh
 * total energy  :   -11.0960305 Eh     change       -0.4847762E-06 Eh
   *** GEOMETRY OPTIMIZATION CONVERGED AFTER 28 ITERATIONS ***

 final structure:
================
5
 xtb: 6.2.2 (9d81278992624c895f80dd42a50cac0aa55982e2)
N         1.23510530414375    0.27281504562505   -0.11329591167065
C         0.03026835781194   -0.01373776638737   -0.02546075604421
C        -1.22872989643339   -0.26684444236224    0.12921403203775
C         2.39823550597275    0.53914021278760   -0.22577700940971
C        -2.43488027149504   -0.53137204966304    0.23531964508684

          :  Hamiltonian                  GFN2-xTB          :
         :: gradient norm              0.000511456793 Eh/a0 ::
         :: HOMO-LUMO gap              3.451109530792 eV    ::
         :: SCC energy               -11.367574483135 Eh    ::
         :: -> dispersion             -0.002675551747 Eh    ::
         :: repulsion energy           0.271545085400 Eh    ::

    * Orbital Energies and Occupations

         #    Occupation            Energy/Eh            Energy/eV
      -------------------------------------------------------------
         1        2.0000           -0.6972724             -18.9737
         2        2.0000           -0.6704170             -18.2430
         3        2.0000           -0.6525186             -17.7559
         4        2.0000           -0.6042308             -16.4420
         5        2.0000           -0.5577077             -15.1760
         6        2.0000           -0.5576953             -15.1757
         7        2.0000           -0.4808670             -13.0851
         8        2.0000           -0.4808326             -13.0841
         9        2.0000           -0.4566308             -12.4256
        10        1.0000           -0.4325664             -11.7707
        11        1.0000           -0.3676946             -10.0055
        12        1.0000           -0.3675823             -10.0024 (HOMO)
        13                         -0.2407564              -6.5513 (LUMO)
        14                         -0.2406452              -6.5483
        15                         -0.1094116              -2.9772
        16                         -0.1090170              -2.9665
        17                          0.0585093               1.5921
        18                          0.4883428              13.2885
        19                          0.9904603              26.9518
        20                          1.4334377              39.0058
      -------------------------------------------------------------
                  HL-Gap            0.1268259 Eh            3.4511 eV

     #   Z        covCN         q      C6AA      Î±(0)
     1   7 N      1.822     0.098    20.175     6.655
     2   6 C      1.903     0.056    29.690     8.800
     3   6 C      1.962     0.021    30.529     8.923
     4   6 C      0.920    -0.134    39.807    10.564
     5   6 C      0.983    -0.041    37.194    10.245

Wiberg/Mayer (AO) data.
largest (>0.10) Wiberg bond orders for each atom
          total WBO             WBO to atom ...

molecular dipole:
                 x           y           z       tot (Debye)
 q only:       -0.234      -0.057       0.020
   full:       -0.642      -0.148       0.060       1.681

 projected vibrational frequencies (cm-1)
eigval :       -0.00    -0.00    -0.00    -0.00     0.00     0.00
eigval :       78.43   202.97   213.94   355.64   355.84   830.31
eigval :     1647.99  1888.68  1994.30

   temp. (K)  partition function   enthalpy   heat capacity  entropy
                                   cal/mol     cal/K/mol   cal/K/mol   J/K/mol
  10.00  VIB   1.00                    0.003      0.003     -0.049
         ROT   10.9                   29.809      2.981      7.733
         INT   10.9                   29.812      2.984      7.684
         TR   0.290E+25               49.681      4.968     21.419
         TOT                          79.4932     7.9522    29.1031   121.7672

       T/K    H(0)-H(T)+PV         H(T)/Eh          T*S/Eh         G(T)/Eh
   ------------------------------------------------------------------------
    298.15    0.643322E-02    0.236746E-01    0.316126E-01   -0.793800E-02
    120.00    0.196558E-02    0.192070E-01    0.100618E-01    0.914519E-02
    100.00    0.155699E-02    0.187984E-01    0.801624E-02    0.107821E-01
     80.00    0.118008E-02    0.184215E-01    0.608017E-02    0.123413E-01
     60.00    0.837965E-03    0.180794E-01    0.426791E-02    0.138115E-01
     40.00    0.530408E-03    0.177718E-01    0.259777E-02    0.151740E-01
     20.00    0.254624E-03    0.174960E-01    0.110768E-02    0.163883E-01
     10.00    0.126681E-03    0.173681E-01    0.463787E-03    0.169043E-01 (used)
   ------------------------------------------------------------------------

         :::::::::::::::::::::::::::::::::::::::::::::::::::::
         ::                  THERMODYNAMIC                  ::
         :::::::::::::::::::::::::::::::::::::::::::::::::::::
         :: total free energy         -11.079126224404 Eh   ::
         ::.................................................::
         :: total energy              -11.096030513607 Eh   ::
         :: zero point energy           0.017241395390 Eh   ::
         :: G(RRHO) w/o ZPVE           -0.000337106187 Eh   ::
         :: G(RRHO) contrib.            0.016904289203 Eh   ::
         :::::::::::::::::::::::::::::::::::::::::::::::::::::

           -------------------------------------------------
          | TOTAL ENERGY              -11.096030513607 Eh   |
          | TOTAL ENTHALPY            -11.078662437709 Eh   |
          | TOTAL FREE ENERGY         -11.079126224404 Eh   |
          | GRADIENT NORM               0.000511444240 Eh/Î± |
          | HOMO-LUMO GAP               3.451109325137 eV   |
           -------------------------------------------------

 * finished run on 2020/05/12 at 11:44:00.130
