 Gaussian 16, Revision B.01,

 --------------------------------------------------------
 #P M062X/cc-pvtz nosymm opt(noeigentest) optcyc=120 freq
 --------------------------------------------------------

 -----
 Title
 -----
 Symbolic Z-matrix:
 Charge =  0 Multiplicity = 2

 SCF Done:  E(UM062X) =  -154.036231075     A.U. after   20 cycles
 SCF Done:  E(UM062X) =  -154.045211473     A.U. after   18 cycles
 SCF Done:  E(UM062X) =  -154.048405786     A.U. after   20 cycles
 SCF Done:  E(UM062X) =  -154.044838060     A.U. after   20 cycles
 SCF Done:  E(UM062X) =  -154.050782795     A.U. after   17 cycles
 SCF Done:  E(UM062X) =  -154.050965564     A.U. after   17 cycles
 SCF Done:  E(UM062X) =  -154.051289700     A.U. after   18 cycles
 SCF Done:  E(UM062X) =  -154.051324961     A.U. after   14 cycles
 SCF Done:  E(UM062X) =  -154.051367480     A.U. after   16 cycles
 SCF Done:  E(UM062X) =  -154.051384911     A.U. after   16 cycles
 SCF Done:  E(UM062X) =  -154.051388794     A.U. after   13 cycles
 SCF Done:  E(UM062X) =  -154.051389343     A.U. after   12 cycles
 Optimization completed.
    -- Stationary point found.
 Normal termination of Gaussian 16 at Fri Sep 25 23:37:37 2020.

 -------------------------------------------------------------------
 #P Geom=AllCheck Guess=TCheck SCRF=Check GenChk UM062X/CC-pVTZ Freq
 -------------------------------------------------------------------

 Structure from the checkpoint file:  "input.chk"
 -----
 Title
 -----
 Charge =  0 Multiplicity = 2

 SCF Done:  E(UM062X) =  -154.051389343     A.U. after    1 cycles

  Exact polarizability:  28.347   0.000  24.651   6.893   0.000  95.309
 Approx polarizability:  33.554   0.000  29.759   9.358   0.000 124.812

                      1                      2                      3
                      A                      A                      A
 Frequencies --     62.4558               228.5626               368.8286
 Red. masses --      3.2263                 3.8426                10.3799
 Frc consts  --      0.0074                 0.1183                 0.8319
 IR Inten    --      5.8545                 7.2258                 0.1498

                      4                      5                      6
                      A                      A                      A
 Frequencies --    429.1518               549.8737               693.0010
 Red. masses --      1.1527                 7.4176                 1.2678
 Frc consts  --      0.1251                 1.3214                 0.3587
 IR Inten    --     55.7211                 0.0239                40.8080

                      7                      8                      9
                      A                      A                      A
 Frequencies --    894.3477               918.2210               970.8494
 Red. masses --      4.9049                 1.3293                 1.3400
 Frc consts  --      2.3115                 0.6603                 0.7441
 IR Inten    --      0.3015                49.8296                 0.0001

                     10                     11                     12
                      A                      A                      A
 Frequencies --   1435.0865              1834.4510              2009.0398
 Red. masses --      1.1254                 7.8865                 8.1167
 Frc consts  --      1.3656                15.6367                19.3021
 IR Inten    --      0.6434                12.4791                 5.4458

                     13                     14                     15
                      A                      A                      A
 Frequencies --   3101.1795              3169.5973              3474.2854
 Red. masses --      1.0537                 1.1139                 1.1346
 Frc consts  --      5.9706                 6.5936                 8.0693
 IR Inten    --      1.9663                 0.9048                91.6432

 - Thermochemistry -
 -------------------
 Temperature   298.150 Kelvin.  Pressure   1.00000 Atm.
 Atom     1 has atomic number  6 and mass  12.00000

 Molecular mass:    51.02348 amu.
 Principal axes and moments of inertia in atomic units:
                           1         2         3
     Eigenvalues --     6.16025 431.65407 437.81432
           X            0.10098   0.99489  -0.00000
           Y            0.00000   0.00000   1.00000
           Z            0.99489  -0.10098  -0.00000
 This molecule is an asymmetric top.
 Rotational symmetry number  1.
 Rotational temperatures (Kelvin)     14.06013     0.20066     0.19783
 Rotational constants (GHZ):         292.96550     4.18099     4.12216
 Zero-point vibrational energy     120457.6 (Joules/Mol)
                                   28.79005 (Kcal/Mol)
 Warning -- explicit consideration of   5 degrees of freedom as
           vibrations may cause significant error
 Vibrational temperatures:     89.86   328.85   530.66   617.45   791.15
          (Kelvin)            997.07  1286.77  1321.12  1396.84  2064.77
                             2639.37  2890.56  4461.91  4560.34  4998.72

 Zero-point correction=                           0.045880 (Hartree/Particle)
 Thermal correction to Energy=                    0.051122
 Thermal correction to Enthalpy=                  0.052066
 Thermal correction to Gibbs Free Energy=         0.018692
 Sum of electronic and zero-point Energies=           -154.005509
 Sum of electronic and thermal Energies=              -154.000267
 Sum of electronic and thermal Enthalpies=            -153.999323
 Sum of electronic and thermal Free Energies=         -154.032697

                     E (Thermal)             CV                S
                      KCal/Mol        Cal/Mol-Kelvin    Cal/Mol-Kelvin
 Total                   32.080             16.179             70.241
 Electronic               0.000              0.000              1.377
 Translational            0.889              2.981             37.712
 Rotational               0.889              2.981             21.681
 Vibrational             30.302             10.217              9.471
 Vibration     1          0.597              1.972              4.378
 Vibration     2          0.651              1.797              1.890
 Vibration     3          0.741              1.536              1.085
 Vibration     4          0.791              1.407              0.861
 Vibration     5          0.905              1.140              0.544

 Optimization completed.
    -- Stationary point found.
 Normal termination of Gaussian 16 at Fri Sep 25 23:39:28 2020.
 Gaussian 16:  ES64L-G16RevB.01 20-Dec-2017

 -----------------------------------------------
 #P CCSD(T)/aug-cc-pvtz geom=allcheck guess=read
 -----------------------------------------------

 Structure from the checkpoint file:  "input.chk"
 -----
 Title
 -----
 Charge =  0 Multiplicity = 2

                         Standard orientation:
 ---------------------------------------------------------------------
 Center     Atomic      Atomic             Coordinates (Angstroms)
 Number     Number       Type             X           Y           Z
 ---------------------------------------------------------------------
      1          6           0       -1.866528    0.000294   -0.000000
      2          6           0        0.758100   -0.000086    0.000000
      3          6           0        1.980650    0.000150    0.000000
      4          1           0       -2.436144    0.925968    0.000000
      5          1           0       -2.437856   -0.924244    0.000000
      6          1           0        3.042869    0.000644    0.000000
      7          6           0       -0.567034   -0.000752    0.000000
 ---------------------------------------------------------------------

 SCF Done:  E(UHF) =  -153.138930734     A.U. after   20 cycles
 E2 =    -0.5502468525D+00 EUMP2 =    -0.15368917758656D+03
 CCSD(T)
 CCSD(T)= -0.15377789762D+03

 The electronic state is 2-A.
 Alpha  occ. eigenvalues --  -11.26688 -11.25645 -11.23931 -11.23598  -1.10174
 Alpha  occ. eigenvalues --   -1.03044  -0.87462  -0.72432  -0.66657  -0.63314
 Alpha  occ. eigenvalues --   -0.49656  -0.48497  -0.37776  -0.34296
 Alpha virt. eigenvalues --    0.02939   0.03241   0.04505   0.07201   0.07264
 Alpha virt. eigenvalues --    0.08489   0.09035   0.10435   0.11014   0.11701
 Alpha virt. eigenvalues --    0.12853   0.13511   0.14910   0.15635   0.16845

  Beta  occ. eigenvalues --  -11.26036 -11.25692 -11.23506 -11.22790  -1.07727
  Beta  occ. eigenvalues --   -1.01716  -0.83859  -0.70386  -0.65974  -0.60265
  Beta  occ. eigenvalues --   -0.48461  -0.43625  -0.37784
  Beta virt. eigenvalues --    0.02979   0.03242   0.04480   0.07284   0.07411
  Beta virt. eigenvalues --    0.07694   0.09011   0.09788   0.10484   0.11092
  Beta virt. eigenvalues --    0.11797   0.13619   0.13952   0.15307   0.15856

 Mulliken charges and spin densities:
               1          2
     1  C   -1.124506  -0.860828
     2  C    1.286806  -1.343951
     3  C   -1.667760   1.409016
     4  H    0.301370   0.095120
     5  H    0.301682   0.094843
     6  H    0.327840  -0.126905
     7  C    0.574567   1.732704
 Sum of Mulliken charges =  -0.00000   1.00000

 Dipole moment (field-independent basis, Debye):
    X=             -0.0253    Y=              0.0014    Z=              0.0000  Tot=              0.0253
 Quadrupole moment (field-independent basis, Debye-Ang):
   XX=            -15.6661   YY=            -24.1384   ZZ=            -25.9989
   XY=              0.0016   XZ=             -0.0000   YZ=             -0.0000

 53.7284573\CCSD=-153.7443103\CCSD(T)=-153.7778976\S2=1.376449\S2-1=1.2
 Normal termination of Gaussian 16 at Sat Sep 26 00:28:39 2020.
