   * xtb version 6.2.2 (9d81278992624c895f80dd42a50cac0aa55982e2) compiled by '@Darwin' on 04/03/2020
          program call               : xtb --input H2C2N1_3_S_1.input H2C2N1_3_S_1.xyz --ohess --molden --namespace H2C2N1_3_S_1 output.out
          number of atoms            :                     5
          number of electrons        :                    15
          charge                     :                     0
          spin                       :                   0.5

   ID    Z sym.   atoms
    1    6 C      1, 3
    2    7 N      2
    3    1 H      4, 5

          :  Hamiltonian                  GFN2-xTB          :
 * total energy  :    -7.9122868 Eh     change        0.5139178E-10 Eh
 * total energy  :    -7.9859620 Eh     change       -0.7367519E-01 Eh
 * total energy  :    -7.9883978 Eh     change       -0.2435810E-02 Eh
 * total energy  :    -8.0154598 Eh     change       -0.2706204E-01 Eh
 * total energy  :    -8.0198433 Eh     change       -0.4383421E-02 Eh
 * total energy  :    -8.0218950 Eh     change       -0.2051777E-02 Eh
 * total energy  :    -8.0227660 Eh     change       -0.8709891E-03 Eh
 * total energy  :    -8.0230049 Eh     change       -0.2388207E-03 Eh
 * total energy  :    -8.0232490 Eh     change       -0.2441228E-03 Eh
 * total energy  :    -8.0233209 Eh     change       -0.7188350E-04 Eh
 * total energy  :    -8.0233870 Eh     change       -0.6617262E-04 Eh
 * total energy  :    -8.0232340 Eh     change        0.1530681E-03 Eh
 * total energy  :    -8.0233741 Eh     change       -0.1401448E-03 Eh
 * total energy  :    -8.0233908 Eh     change       -0.1671014E-04 Eh
 * total energy  :    -8.0233909 Eh     change       -0.4584261E-07 Eh
   *** GEOMETRY OPTIMIZATION CONVERGED AFTER 15 ITERATIONS ***

 final structure:
================
5
 xtb: 6.2.2 (9d81278992624c895f80dd42a50cac0aa55982e2)
C         0.74915383120653   -0.07281541489997    0.18724424194170
N        -0.57570420520927   -0.02102185396232    0.13243855225692
C         1.93631578723740   -0.01104787074756   -0.15151474185074
H        -1.07764993800368   -0.77503285217817   -0.31458181227833
H        -1.03211547523098    0.87991799178802    0.14641375993045

          :  Hamiltonian                  GFN2-xTB          :
         :: gradient norm              0.000189153855 Eh/a0 ::
         :: HOMO-LUMO gap              5.498056290388 eV    ::
         :: SCC energy                -8.178264775746 Eh    ::
         :: -> dispersion             -0.001523432772 Eh    ::
         :: repulsion energy           0.154873895752 Eh    ::

    * Orbital Energies and Occupations

         #    Occupation            Energy/Eh            Energy/eV
      -------------------------------------------------------------
         1        2.0000           -0.6525015             -17.7555
         2        2.0000           -0.6108184             -16.6212
         3        2.0000           -0.5674120             -15.4401
         4        2.0000           -0.5657122             -15.3938
         5        2.0000           -0.4851053             -13.2004
         6        2.0000           -0.3968736             -10.7995
         7        2.0000           -0.3880741             -10.5600
         8        1.0000           -0.3575820              -9.7303 (HOMO)
         9                         -0.1555321              -4.2322 (LUMO)
        10                         -0.1511001              -4.1116
        11                          0.0171395               0.4664
        12                          0.2292771               6.2389
        13                          0.2686942               7.3115
        14                          1.0699782              29.1156
      -------------------------------------------------------------
                  HL-Gap            0.2020498 Eh            5.4981 eV

     #   Z        covCN         q      C6AA      Î±(0)
     1   6 C      1.891     0.036    30.195     8.875
     2   7 N      2.631    -0.181    24.927     7.415
     3   6 C      0.982    -0.206    42.875    10.998
     4   1 H      0.860     0.176     1.240     1.744
     5   1 H      0.860     0.176     1.240     1.744

Wiberg/Mayer (AO) data.
largest (>0.10) Wiberg bond orders for each atom
          total WBO             WBO to atom ...

molecular dipole:
                 x           y           z       tot (Debye)
 q only:       -1.207       0.041      -0.029
   full:       -1.705       0.043       0.013       4.336

 projected vibrational frequencies (cm-1)
eigval :       -0.00    -0.00    -0.00    -0.00     0.00     0.00
eigval :      370.96   383.95   466.51  1006.25  1148.64  1445.73
eigval :     1900.46  3393.18  3435.76

   temp. (K)  partition function   enthalpy   heat capacity  entropy
                                   cal/mol     cal/K/mol   cal/K/mol   J/K/mol
  10.00  VIB   1.00                    0.000      0.000     -0.001
         ROT   32.1                   29.809      2.981      9.875
         INT   32.1                   29.809      2.981      9.873
         TR   0.151E+25               49.681      4.968     20.115
         TOT                          79.4904     7.9490    29.9878   125.4689

       T/K    H(0)-H(T)+PV         H(T)/Eh          T*S/Eh         G(T)/Eh
   ------------------------------------------------------------------------
    298.15    0.475456E-02    0.356270E-01    0.284958E-01    0.713117E-02
    120.00    0.156581E-02    0.324383E-01    0.956657E-02    0.228717E-01
    100.00    0.128453E-02    0.321570E-01    0.771601E-02    0.244410E-01
     80.00    0.101779E-02    0.318902E-01    0.593498E-02    0.259553E-01
     60.00    0.760493E-03    0.316329E-01    0.422935E-02    0.274036E-01
     40.00    0.506709E-03    0.313792E-01    0.261384E-02    0.287653E-01
     20.00    0.253352E-03    0.311258E-01    0.113134E-02    0.299945E-01
     10.00    0.126676E-03    0.309991E-01    0.477886E-03    0.305212E-01 (used)
   ------------------------------------------------------------------------

         :::::::::::::::::::::::::::::::::::::::::::::::::::::
         ::                  THERMODYNAMIC                  ::
         :::::::::::::::::::::::::::::::::::::::::::::::::::::
         :: total free energy          -7.992869629910 Eh   ::
         ::.................................................::
         :: total energy               -8.023390865908 Eh   ::
         :: zero point energy           0.030872445719 Eh   ::
         :: G(RRHO) w/o ZPVE           -0.000351209721 Eh   ::
         :: G(RRHO) contrib.            0.030521235998 Eh   ::
         :::::::::::::::::::::::::::::::::::::::::::::::::::::

           -------------------------------------------------
          | TOTAL ENERGY               -8.023390865908 Eh   |
          | TOTAL ENTHALPY             -7.992391744174 Eh   |
          | TOTAL FREE ENERGY          -7.992869629910 Eh   |
          | GRADIENT NORM               0.000189105709 Eh/Î± |
          | HOMO-LUMO GAP               5.498056119834 eV   |
           -------------------------------------------------

 * finished run on 2020/05/12 at 11:44:45.966
