   * xtb version 6.2.2 (9d81278992624c895f80dd42a50cac0aa55982e2) compiled by '@Darwin' on 04/03/2020
          program call               : xtb --input H2C2N1_5_S_3.input H2C2N1_5_S_3.xyz --ohess --molden --namespace H2C2N1_5_S_3 output.out
          number of atoms            :                     5
          number of electrons        :                    15
          charge                     :                     0
          spin                       :                   1.5

   ID    Z sym.   atoms
    1    6 C      1, 3
    2    7 N      2
    3    1 H      4, 5

          :  Hamiltonian                  GFN2-xTB          :
 * total energy  :    -7.8382352 Eh     change        0.1386252E-08 Eh
 * total energy  :    -7.8685623 Eh     change       -0.3032712E-01 Eh
 * total energy  :    -7.8711716 Eh     change       -0.2609337E-02 Eh
 * total energy  :    -7.8774129 Eh     change       -0.6241242E-02 Eh
 * total energy  :    -7.8789768 Eh     change       -0.1563905E-02 Eh
 * total energy  :    -7.8797230 Eh     change       -0.7461974E-03 Eh
 * total energy  :    -7.8813413 Eh     change       -0.1618363E-02 Eh
 * total energy  :    -7.8816925 Eh     change       -0.3511653E-03 Eh
 * total energy  :    -7.8743658 Eh     change        0.7326685E-02 Eh
 * total energy  :    -7.8835541 Eh     change       -0.9188254E-02 Eh
 * total energy  :    -7.9180212 Eh     change       -0.4765974E-02 Eh
 * total energy  :    -7.9184683 Eh     change       -0.4470456E-03 Eh
 * total energy  :    -7.9206816 Eh     change       -0.2213345E-02 Eh
 * total energy  :    -7.9212042 Eh     change       -0.5225543E-03 Eh
 * total energy  :    -7.9217481 Eh     change       -0.5439497E-03 Eh
 * total energy  :    -7.9219139 Eh     change       -0.1657964E-03 Eh
 * total energy  :    -7.9219836 Eh     change       -0.6965173E-04 Eh
 * total energy  :    -7.9220038 Eh     change       -0.2023836E-04 Eh
 * total energy  :    -7.9220081 Eh     change       -0.4347750E-05 Eh
   *** GEOMETRY OPTIMIZATION CONVERGED AFTER 25 ITERATIONS ***

 final structure:
================
5
 xtb: 6.2.2 (9d81278992624c895f80dd42a50cac0aa55982e2)
C         0.72377166953380   -0.60840217154925    0.11552288714854
N         1.78520665366344    0.05041149518433   -0.13004119880755
C        -0.48955251287833    0.03499725773296    0.02300590826022
H        -1.37103503034324   -0.55339220988049    0.23487536111966
H        -0.64839177997566    1.07638662851244   -0.24336295772087

          :  Hamiltonian                  GFN2-xTB          :
         :: gradient norm              0.000335489920 Eh/a0 ::
         :: HOMO-LUMO gap              2.922086594241 eV    ::
         :: SCC energy                -8.035253546440 Eh    ::
         :: -> dispersion             -0.001480383264 Eh    ::
         :: repulsion energy           0.113245390835 Eh    ::

    * Orbital Energies and Occupations

         #    Occupation            Energy/Eh            Energy/eV
      -------------------------------------------------------------
         1        2.0000           -0.6539842             -17.7958
         2        2.0000           -0.6156309             -16.7522
         3        2.0000           -0.5463611             -14.8672
         4        2.0000           -0.5227731             -14.2254
         5        2.0000           -0.4859580             -13.2236
         6        2.0000           -0.4677779             -12.7289
         7        1.0000           -0.4277950             -11.6409
         8        1.0000           -0.3814833             -10.3807
         9        1.0000           -0.3059096              -8.3242 (HOMO)
        10                         -0.1985249              -5.4021 (LUMO)
        11                          0.1205556               3.2805
        12                          0.2084631               5.6726
        13                          0.4064126              11.0590
        14                          0.5136865              13.9781
      -------------------------------------------------------------
                  HL-Gap            0.1073846 Eh            2.9221 eV

     #   Z        covCN         q      C6AA      Î±(0)
     1   6 C      1.891     0.019    30.625     8.938
     2   7 N      0.942    -0.166    24.430     7.132
     3   6 C      2.862    -0.052    29.281     8.870
     4   1 H      0.926     0.110     1.693     2.035
     5   1 H      0.925     0.089     1.893     2.152

Wiberg/Mayer (AO) data.
largest (>0.10) Wiberg bond orders for each atom
          total WBO             WBO to atom ...

molecular dipole:
                 x           y           z       tot (Debye)
 q only:       -0.881       0.023       0.051
   full:       -1.106       0.057       0.057       2.819

 projected vibrational frequencies (cm-1)
eigval :       -0.00    -0.00     0.00     0.00     0.00     0.00
eigval :      419.51   574.20   737.78   844.01  1211.86  1277.72
eigval :     1529.51  2937.08  3041.87

   temp. (K)  partition function   enthalpy   heat capacity  entropy
                                   cal/mol     cal/K/mol   cal/K/mol   J/K/mol
  10.00  VIB   1.00                    0.000      0.000     -0.001
         ROT   46.8                   29.809      2.981     10.622
         INT   46.8                   29.809      2.981     10.621
         TR   0.151E+25               49.681      4.968     20.115
         TOT                          79.4904     7.9490    30.7360   128.5995

       T/K    H(0)-H(T)+PV         H(T)/Eh          T*S/Eh         G(T)/Eh
   ------------------------------------------------------------------------
    298.15    0.444003E-02    0.330846E-01    0.283293E-01    0.475534E-02
    120.00    0.153602E-02    0.301806E-01    0.967290E-02    0.205077E-01
    100.00    0.127212E-02    0.299167E-01    0.782035E-02    0.220964E-01
     80.00    0.101451E-02    0.296591E-01    0.602648E-02    0.236326E-01
     60.00    0.760141E-03    0.294047E-01    0.430042E-02    0.251043E-01
     40.00    0.506705E-03    0.291513E-01    0.266149E-02    0.264898E-01
     20.00    0.253352E-03    0.288980E-01    0.115518E-02    0.277428E-01
     10.00    0.126676E-03    0.287713E-01    0.489810E-03    0.282815E-01 (used)
   ------------------------------------------------------------------------

         :::::::::::::::::::::::::::::::::::::::::::::::::::::
         ::                  THERMODYNAMIC                  ::
         :::::::::::::::::::::::::::::::::::::::::::::::::::::
         :: total free energy          -7.893726667465 Eh   ::
         ::.................................................::
         :: total energy               -7.922008140501 Eh   ::
         :: zero point energy           0.028644606827 Eh   ::
         :: G(RRHO) w/o ZPVE           -0.000363133792 Eh   ::
         :: G(RRHO) contrib.            0.028281473036 Eh   ::
         :::::::::::::::::::::::::::::::::::::::::::::::::::::

           -------------------------------------------------
          | TOTAL ENERGY               -7.922008140501 Eh   |
          | TOTAL ENTHALPY             -7.893236857658 Eh   |
          | TOTAL FREE ENERGY          -7.893726667465 Eh   |
          | GRADIENT NORM               0.000335396846 Eh/Î± |
          | HOMO-LUMO GAP               2.922084969201 eV   |
           -------------------------------------------------

 * finished run on 2020/05/12 at 11:44:46.685
