   * xtb version 6.2.2 (9d81278992624c895f80dd42a50cac0aa55982e2) compiled by '@Darwin' on 04/03/2020
          program call               : xtb --input C4N1_6_S_1.input C4N1_6_S_1.xyz --ohess --molden --namespace C4N1_6_S_1 output.out
          number of atoms            :                     5
          number of electrons        :                    21
          charge                     :                     0
          spin                       :                   0.5

   ID    Z sym.   atoms
    1    7 N      1
    2    6 C      2-5

          :  Hamiltonian                  GFN2-xTB          :
 * total energy  :   -10.9190708 Eh     change        0.1491873E-09 Eh
 * total energy  :   -11.0618285 Eh     change       -0.1427577E+00 Eh
 * total energy  :   -11.0951404 Eh     change       -0.3331194E-01 Eh
 * total energy  :   -11.1310075 Eh     change       -0.3586712E-01 Eh
 * total energy  :   -11.1358990 Eh     change       -0.4891437E-02 Eh
 * total energy  :   -11.1429802 Eh     change       -0.7081295E-02 Eh
 * total energy  :   -11.1432676 Eh     change       -0.2873279E-03 Eh
 * total energy  :   -11.1501192 Eh     change       -0.6851632E-02 Eh
 * total energy  :   -11.1471011 Eh     change        0.3018083E-02 Eh
 * total energy  :   -11.1518438 Eh     change       -0.4742637E-02 Eh
 * total energy  :   -11.1574593 Eh     change       -0.2400741E-03 Eh
 * total energy  :   -11.1576269 Eh     change       -0.1676688E-03 Eh
 * total energy  :   -11.1577765 Eh     change       -0.1495364E-03 Eh
 * total energy  :   -11.1578280 Eh     change       -0.5153715E-04 Eh
 * total energy  :   -11.1578599 Eh     change       -0.3191081E-04 Eh
 * total energy  :   -11.1579057 Eh     change       -0.4578539E-04 Eh
 * total energy  :   -11.1579552 Eh     change       -0.4944819E-04 Eh
 * total energy  :   -11.1579747 Eh     change       -0.1958773E-04 Eh
 * total energy  :   -11.1579782 Eh     change       -0.3502420E-05 Eh
   *** GEOMETRY OPTIMIZATION CONVERGED AFTER 27 ITERATIONS ***

 final structure:
================
5
 xtb: 6.2.2 (9d81278992624c895f80dd42a50cac0aa55982e2)
N         1.24242992423137    0.26936453760667   -0.11932588700205
C         0.02550328081454    0.00839054932102   -0.00199853043387
C        -1.20886276935768   -0.26165442908364    0.11842974783506
C         2.40490788134695    0.52354317821554   -0.23417960720140
C        -2.46397931703517   -0.53964283605958    0.23707427680225

          :  Hamiltonian                  GFN2-xTB          :
         :: gradient norm              0.000908686549 Eh/a0 ::
         :: HOMO-LUMO gap              0.000008636684 eV    ::
         :: SCC energy               -11.414081561820 Eh    ::
         :: -> dispersion             -0.002663186107 Eh    ::
         :: repulsion energy           0.256104482376 Eh    ::

    * Orbital Energies and Occupations

         #    Occupation            Energy/Eh            Energy/eV
      -------------------------------------------------------------
         1        2.0000           -0.7214720             -19.6323
         2        2.0000           -0.6914741             -18.8160
         3        2.0000           -0.6671729             -18.1547
         4        2.0000           -0.6244351             -16.9917
         5        2.0000           -0.5815022             -15.8235
         6        2.0000           -0.5815020             -15.8235
         7        2.0000           -0.4862511             -13.2316
         8        2.0000           -0.4862479             -13.2315
         9        2.0000           -0.4828913             -13.1401
        10        2.0000           -0.4432414             -12.0612
        11        0.5000           -0.3822724             -10.4022 (HOMO)
        12        0.5000           -0.3822721             -10.4022 (LUMO)
        13                         -0.2636577              -7.1745
        14                         -0.2636565              -7.1745
        15                         -0.1289151              -3.5080
        16                         -0.1289110              -3.5078
        17                          0.0340608               0.9268
        18                          0.4266580              11.6100
        19                          0.9028832              24.5687
        20                          1.4011122              38.1262
      -------------------------------------------------------------
                  HL-Gap            0.0000003 Eh            0.0000 eV

     #   Z        covCN         q      C6AA      Î±(0)
     1   7 N      1.822     0.104    20.079     6.640
     2   6 C      1.902     0.096    28.715     8.654
     3   6 C      1.962     0.037    30.130     8.864
     4   6 C      0.919    -0.109    38.937    10.448
     5   6 C      0.982    -0.128    40.063    10.632

Wiberg/Mayer (AO) data.
largest (>0.10) Wiberg bond orders for each atom
          total WBO             WBO to atom ...

molecular dipole:
                 x           y           z       tot (Debye)
 q only:        0.267       0.059      -0.025
   full:        0.385       0.088      -0.035       1.008

 projected vibrational frequencies (cm-1)
eigval :       -0.00    -0.00    -0.00     0.00     0.00     0.00
eigval :      118.93   238.98   264.01   382.14   400.63   829.56
eigval :     1561.94  1952.56  1977.02

   temp. (K)  partition function   enthalpy   heat capacity  entropy
                                   cal/mol     cal/K/mol   cal/K/mol   J/K/mol
  10.00  VIB   1.00                    0.000      0.000     -0.027
         ROT   1.63                   29.809      2.981      3.954
         INT   1.63                   29.809      2.981      3.927
         TR   0.290E+25               49.681      4.968     21.419
         TOT                          79.4904     7.9491    25.3464   106.0493

       T/K    H(0)-H(T)+PV         H(T)/Eh          T*S/Eh         G(T)/Eh
   ------------------------------------------------------------------------
    298.15    0.615653E-02    0.237571E-01    0.290262E-01   -0.526913E-02
    120.00    0.184356E-02    0.194441E-01    0.910429E-02    0.103398E-01
    100.00    0.146288E-02    0.190635E-01    0.724091E-02    0.118225E-01
     80.00    0.111445E-02    0.187150E-01    0.548272E-02    0.132323E-01
     60.00    0.799256E-03    0.183998E-01    0.384087E-02    0.145590E-01
     40.00    0.514622E-03    0.181152E-01    0.233033E-02    0.157849E-01
     20.00    0.253456E-03    0.178540E-01    0.984258E-03    0.168698E-01
     10.00    0.126676E-03    0.177272E-01    0.403920E-03    0.173233E-01 (used)
   ------------------------------------------------------------------------

         :::::::::::::::::::::::::::::::::::::::::::::::::::::
         ::                  THERMODYNAMIC                  ::
         :::::::::::::::::::::::::::::::::::::::::::::::::::::
         :: total free energy         -11.140654926515 Eh   ::
         ::.................................................::
         :: total energy              -11.157978255259 Eh   ::
         :: zero point energy           0.017600573086 Eh   ::
         :: G(RRHO) w/o ZPVE           -0.000277244342 Eh   ::
         :: G(RRHO) contrib.            0.017323328744 Eh   ::
         :::::::::::::::::::::::::::::::::::::::::::::::::::::

           -------------------------------------------------
          | TOTAL ENERGY              -11.157978255259 Eh   |
          | TOTAL ENTHALPY            -11.140251006137 Eh   |
          | TOTAL FREE ENERGY         -11.140654926515 Eh   |
          | GRADIENT NORM               0.000906289647 Eh/Î± |
          | HOMO-LUMO GAP               0.000008622716 eV   |
           -------------------------------------------------

 * finished run on 2020/05/12 at 11:43:59.875
