   * xtb version 6.2.2 (9d81278992624c895f80dd42a50cac0aa55982e2) compiled by '@Darwin' on 04/03/2020
          program call               : xtb --input C3N1_4_S_3.input C3N1_4_S_3.xyz --ohess --molden --namespace C3N1_4_S_3 output.out
          number of atoms            :                     4
          number of electrons        :                    17
          charge                     :                     0
          spin                       :                   1.5

   ID    Z sym.   atoms
    1    6 C      1-3
    2    7 N      4

          :  Hamiltonian                  GFN2-xTB          :
 * total energy  :    -8.8174138 Eh     change        0.1158984E-09 Eh
 * total energy  :    -8.8609347 Eh     change       -0.4352088E-01 Eh
 * total energy  :    -8.8808655 Eh     change       -0.1993076E-01 Eh
 * total energy  :    -8.8883590 Eh     change       -0.7493552E-02 Eh
 * total energy  :    -8.8904463 Eh     change       -0.2087289E-02 Eh
 * total energy  :    -8.8939691 Eh     change       -0.3522795E-02 Eh
 * total energy  :    -8.8975618 Eh     change       -0.3592671E-02 Eh
 * total energy  :    -8.9040883 Eh     change       -0.6526531E-02 Eh
 * total energy  :    -8.9134572 Eh     change       -0.9368913E-02 Eh
 * total energy  :    -8.9161802 Eh     change       -0.2722942E-02 Eh
 * total energy  :    -8.9414182 Eh     change       -0.2234114E-04 Eh
 * total energy  :    -8.9414260 Eh     change       -0.7780785E-05 Eh
 * total energy  :    -8.9414324 Eh     change       -0.6352814E-05 Eh
 * total energy  :    -8.9414376 Eh     change       -0.5195971E-05 Eh
 * total energy  :    -8.9414415 Eh     change       -0.3929252E-05 Eh
 * total energy  :    -8.9414443 Eh     change       -0.2803041E-05 Eh
 * total energy  :    -8.9414478 Eh     change       -0.3523680E-05 Eh
 * total energy  :    -8.9414528 Eh     change       -0.5013036E-05 Eh
 * total energy  :    -8.9414539 Eh     change       -0.1074162E-05 Eh
   *** GEOMETRY OPTIMIZATION CONVERGED AFTER 34 ITERATIONS ***

 final structure:
================
4
 xtb: 6.2.2 (9d81278992624c895f80dd42a50cac0aa55982e2)
C         1.83713697346755   -0.37728403084668    0.08175851209847
C         0.57937675771451   -0.17927221142406   -0.23777422763713
C        -0.62329151878403    0.17160160435606    0.17555457854569
N        -1.79322221239804    0.38495363791468   -0.01953886300702

          :  Hamiltonian                  GFN2-xTB          :
         :: gradient norm              0.000361894611 Eh/a0 ::
         :: HOMO-LUMO gap              0.218590499857 eV    ::
         :: SCC energy                -9.116442982884 Eh    ::
         :: -> dispersion             -0.001736225593 Eh    ::
         :: repulsion energy           0.174989159696 Eh    ::

    * Orbital Energies and Occupations

         #    Occupation            Energy/Eh            Energy/eV
      -------------------------------------------------------------
         1        2.0000           -0.6940015             -18.8847
         2        2.0000           -0.6811539             -18.5351
         3        2.0000           -0.6290032             -17.1160
         4        2.0000           -0.5471985             -14.8900
         5        2.0000           -0.5412241             -14.7275
         6        2.0000           -0.4902817             -13.3412
         7        1.9280           -0.4794898             -13.0476
         8        1.0720           -0.4746335             -12.9154
         9        1.0000           -0.4436499             -12.0723
        10        0.9856           -0.3386248              -9.2144 (HOMO)
        11        0.0144           -0.3305917              -8.9959 (LUMO)
        12                         -0.1997730              -5.4361
        13                         -0.1693066              -4.6071
        14                          0.1886327               5.1330
        15                          0.6481508              17.6371
        16                          0.9653684              26.2690
      -------------------------------------------------------------
                  HL-Gap            0.0080330 Eh            0.2186 eV

     #   Z        covCN         q      C6AA      Î±(0)
     1   6 C      0.983    -0.064    37.922    10.345
     2   6 C      1.964     0.072    29.259     8.735
     3   6 C      1.894     0.117    28.233     8.582
     4   7 N      0.913    -0.125    23.704     7.040

Wiberg/Mayer (AO) data.
largest (>0.10) Wiberg bond orders for each atom
Molecule has the following symmetry elements: (sigma)

molecular dipole:
                 x           y           z       tot (Debye)
 q only:        0.142      -0.032       0.001
   full:        0.275      -0.071      -0.036       0.727

 projected vibrational frequencies (cm-1)
eigval :       -0.00    -0.00    -0.00     0.00     0.00     0.00
eigval :       81.00   239.76   364.95  1001.22  1462.52  1889.45

   temp. (K)  partition function   enthalpy   heat capacity  entropy
                                   cal/mol     cal/K/mol   cal/K/mol   J/K/mol
  10.00  VIB   1.00                    0.002      0.002     -0.043
         ROT   50.6                   29.809      2.981     10.777
         INT   50.6                   29.811      2.983     10.734
         TR   0.210E+25               49.681      4.968     20.778
         TOT                          79.4924     7.9514    31.5128   131.8495

       T/K    H(0)-H(T)+PV         H(T)/Eh          T*S/Eh         G(T)/Eh
   ------------------------------------------------------------------------
    298.15    0.543797E-02    0.169174E-01    0.310328E-01   -0.141154E-01
    120.00    0.183157E-02    0.133110E-01    0.103309E-01    0.298014E-02
    100.00    0.147857E-02    0.129580E-01    0.829058E-02    0.466746E-02
     80.00    0.114272E-02    0.126222E-01    0.633567E-02    0.628651E-02
     60.00    0.825580E-03    0.123050E-01    0.448050E-02    0.782455E-02
     40.00    0.528090E-03    0.120076E-01    0.274719E-02    0.926036E-02
     20.00    0.254443E-03    0.117339E-01    0.118388E-02    0.105500E-01
     10.00    0.126679E-03    0.116061E-01    0.502188E-03    0.111040E-01 (used)
   ------------------------------------------------------------------------

         :::::::::::::::::::::::::::::::::::::::::::::::::::::
         ::                  THERMODYNAMIC                  ::
         :::::::::::::::::::::::::::::::::::::::::::::::::::::
         :: total free energy          -8.930349956955 Eh   ::
         ::.................................................::
         :: total energy               -8.941453913508 Eh   ::
         :: zero point energy           0.011479465574 Eh   ::
         :: G(RRHO) w/o ZPVE           -0.000375509022 Eh   ::
         :: G(RRHO) contrib.            0.011103956552 Eh   ::
         :::::::::::::::::::::::::::::::::::::::::::::::::::::

           -------------------------------------------------
          | TOTAL ENERGY               -8.941453913508 Eh   |
          | TOTAL ENTHALPY             -8.929847768712 Eh   |
          | TOTAL FREE ENERGY          -8.930349956955 Eh   |
          | GRADIENT NORM               0.000360882209 Eh/Î± |
          | HOMO-LUMO GAP               0.218590399065 eV   |
           -------------------------------------------------

 * finished run on 2020/05/12 at 11:45:05.270
