   * xtb version 6.2.2 (9d81278992624c895f80dd42a50cac0aa55982e2) compiled by '@Darwin' on 04/03/2020
          program call               : xtb --input H2C2O1_0_S_2.input H2C2O1_0_S_2.xyz --ohess --molden --namespace H2C2O1_0_S_2 output.out
          number of atoms            :                     5
          number of electrons        :                    16
          charge                     :                     0
          spin                       :                   1.0

   ID    Z sym.   atoms
    1    6 C      1, 2
    2    8 O      3
    3    1 H      4, 5

          :  Hamiltonian                  GFN2-xTB          :
 * total energy  :    -9.0323006 Eh     change       -0.1076859E-08 Eh
 * total energy  :    -9.0428394 Eh     change       -0.1053881E-01 Eh
 * total energy  :    -9.0484301 Eh     change       -0.5590651E-02 Eh
 * total energy  :    -9.0486954 Eh     change       -0.2653515E-03 Eh
 * total energy  :    -9.0487414 Eh     change       -0.4597440E-04 Eh
 * total energy  :    -9.0487490 Eh     change       -0.7559282E-05 Eh
 * total energy  :    -9.0487499 Eh     change       -0.9435326E-06 Eh
   *** GEOMETRY OPTIMIZATION CONVERGED AFTER 7 ITERATIONS ***

 final structure:
================
5
 xtb: 6.2.2 (9d81278992624c895f80dd42a50cac0aa55982e2)
C        -0.11846893749048    0.02759089862622    0.00357073062763
C         1.31346880136143    0.29864474492405   -0.11558686203559
O        -1.00330026254400    0.93659293103483   -0.05814307611764
H        -0.04203202251341   -0.51752931356759    0.99090176780436
H        -0.14966757881355   -0.74529826101750   -0.82074156027876

          :  Hamiltonian                  GFN2-xTB          :
         :: gradient norm              0.000366266515 Eh/a0 ::
         :: HOMO-LUMO gap              0.339053261663 eV    ::
         :: SCC energy                -9.116994388452 Eh    ::
         :: -> dispersion             -0.001318467453 Eh    ::
         :: repulsion energy           0.068244457876 Eh    ::

    * Orbital Energies and Occupations

         #    Occupation            Energy/Eh            Energy/eV
      -------------------------------------------------------------
         1        2.0000           -0.7320355             -19.9197
         2        2.0000           -0.6830792             -18.5875
         3        2.0000           -0.6125597             -16.6686
         4        2.0000           -0.5923344             -16.1182
         5        2.0000           -0.5640979             -15.3499
         6        2.0000           -0.5033107             -13.6958
         7        2.0000           -0.4439067             -12.0793
         8        1.0000           -0.4150712             -11.2947
         9        0.9986           -0.3710198             -10.0960 (HOMO)
        10        0.0014           -0.3585598              -9.7569 (LUMO)
        11                          0.0465121               1.2657
        12                          0.1184671               3.2237
        13                          0.1685462               4.5864
        14                          0.3757565              10.2249
      -------------------------------------------------------------
                  HL-Gap            0.0124600 Eh            0.3391 eV

     #   Z        covCN         q      C6AA      Î±(0)
     1   6 C      3.669     0.185    17.876     6.062
     2   6 C      0.979    -0.150    40.794    10.727
     3   8 O      0.856    -0.340    20.518     6.073
     4   1 H      0.917     0.152     1.377     1.836
     5   1 H      0.917     0.152     1.377     1.836

Wiberg/Mayer (AO) data.
largest (>0.10) Wiberg bond orders for each atom
          total WBO             WBO to atom ...

molecular dipole:
                 x           y           z       tot (Debye)
 q only:        0.177      -1.040       0.120
   full:        0.015      -1.280       0.160       3.279

 projected vibrational frequencies (cm-1)
eigval :       -0.00    -0.00    -0.00    -0.00     0.00     0.00
eigval :     -897.94   490.63   968.07   996.93  1026.50  1209.80
eigval :     1349.40  2491.11  2516.58

   temp. (K)  partition function   enthalpy   heat capacity  entropy
                                   cal/mol     cal/K/mol   cal/K/mol   J/K/mol
  10.00  VIB   1.00                    0.000      0.000     -0.000
         ROT   55.7                   29.809      2.981     10.971
         INT   55.7                   29.809      2.981     10.971
         TR   0.162E+25               49.681      4.968     20.259
         TOT                          79.4904     7.9490    31.2300   130.6663

       T/K    H(0)-H(T)+PV         H(T)/Eh          T*S/Eh         G(T)/Eh
   ------------------------------------------------------------------------
    298.15    0.414556E-02    0.293171E-01    0.281461E-01    0.117095E-02
    120.00    0.152646E-02    0.266980E-01    0.975584E-02    0.169421E-01
    100.00    0.126869E-02    0.264402E-01    0.789500E-02    0.185452E-01
     80.00    0.101374E-02    0.261853E-01    0.608853E-02    0.200967E-01
     60.00    0.760073E-03    0.259316E-01    0.434755E-02    0.215841E-01
     40.00    0.506704E-03    0.256782E-01    0.269297E-02    0.229853E-01
     20.00    0.253352E-03    0.254249E-01    0.117092E-02    0.242540E-01
     10.00    0.126676E-03    0.252982E-01    0.497682E-03    0.248005E-01 (used)
   ------------------------------------------------------------------------

         :::::::::::::::::::::::::::::::::::::::::::::::::::::
         ::                  THERMODYNAMIC                  ::
         :::::::::::::::::::::::::::::::::::::::::::::::::::::
         :: total free energy          -9.023949374221 Eh   ::
         ::.................................................::
         :: total energy               -9.048749899886 Eh   ::
         :: zero point energy           0.025171531383 Eh   ::
         :: G(RRHO) w/o ZPVE           -0.000371005717 Eh   ::
         :: G(RRHO) contrib.            0.024800525666 Eh   ::
         :::::::::::::::::::::::::::::::::::::::::::::::::::::

           -------------------------------------------------
          | TOTAL ENERGY               -9.048749899886 Eh   |
          | TOTAL ENTHALPY             -9.023451692488 Eh   |
          | TOTAL FREE ENERGY          -9.023949374221 Eh   |
          | GRADIENT NORM               0.000366197814 Eh/Î± |
          | HOMO-LUMO GAP               0.339053420458 eV   |
           -------------------------------------------------

 * finished run on 2020/05/12 at 11:45:13.178
