   * xtb version 6.2.2 (9d81278992624c895f80dd42a50cac0aa55982e2) compiled by '@Darwin' on 04/03/2020
          program call               : xtb --input C5_19_S_2.input C5_19_S_2.xyz --ohess --molden --namespace C5_19_S_2 output.out
          number of atoms            :                     5
          number of electrons        :                    20
          charge                     :                     0
          spin                       :                   1.0

   ID    Z sym.   atoms
    1    6 C      1-5

          :  Hamiltonian                  GFN2-xTB          :
 * total energy  :   -10.1343961 Eh     change       -0.3059952E-10 Eh
 * total energy  :   -10.1613096 Eh     change       -0.2691348E-01 Eh
 * total energy  :   -10.1771384 Eh     change       -0.1582878E-01 Eh
 * total energy  :   -10.1779960 Eh     change       -0.8576478E-03 Eh
 * total energy  :   -10.1782683 Eh     change       -0.2723042E-03 Eh
 * total energy  :   -10.1782694 Eh     change       -0.1017641E-05 Eh
   *** GEOMETRY OPTIMIZATION CONVERGED AFTER 6 ITERATIONS ***

 final structure:
================
5
 xtb: 6.2.2 (9d81278992624c895f80dd42a50cac0aa55982e2)
C         1.09424140650045    0.02145698094798   -0.01770789974558
C         0.01738413184047   -0.07717364581437    0.98030189690029
C        -1.09424065980484   -0.02146251890965    0.01772217242283
C         0.00686998502985   -0.81032491960608   -0.55727583489987
C        -0.02425386356593    0.88750410338212   -0.42304033467768

          :  Hamiltonian                  GFN2-xTB          :
         :: gradient norm              0.000511769630 Eh/a0 ::
         :: HOMO-LUMO gap              3.468553050676 eV    ::
         :: SCC energy               -10.309424232227 Eh    ::
         :: -> dispersion             -0.002361059258 Eh    ::
         :: repulsion energy           0.131154864841 Eh    ::

    * Orbital Energies and Occupations

         #    Occupation            Energy/Eh            Energy/eV
      -------------------------------------------------------------
         1        2.0000           -0.7628531             -20.7583
         2        2.0000           -0.6563717             -17.8608
         3        2.0000           -0.6280077             -17.0890
         4        2.0000           -0.6280029             -17.0888
         5        2.0000           -0.5230187             -14.2321
         6        2.0000           -0.5230175             -14.2320
         7        2.0000           -0.4892376             -13.3128
         8        1.7835           -0.4621567             -12.5759
         9        1.7830           -0.4621541             -12.5759
        10        1.4335           -0.4606807             -12.5358
        11        1.0000           -0.4070726             -11.0770 (HOMO)
        12                         -0.2796056              -7.6085 (LUMO)
        13                         -0.2795950              -7.6082
        14                         -0.2316754              -6.3042
        15                          0.0168723               0.4591
        16                          0.0168834               0.4594
        17                          0.0624065               1.6982
        18                          0.0624206               1.6986
        19                          0.2234521               6.0804
        20                          0.3750153              10.2047
      -------------------------------------------------------------
                  HL-Gap            0.1274670 Eh            3.4686 eV

     #   Z        covCN         q      C6AA      Î±(0)
     1   6 C      3.090    -0.007    28.087     8.687
     2   6 C      3.805     0.005    20.499     6.446
     3   6 C      3.090    -0.007    28.087     8.687
     4   6 C      3.805     0.005    20.498     6.445
     5   6 C      3.805     0.005    20.498     6.445

Wiberg/Mayer (AO) data.
largest (>0.10) Wiberg bond orders for each atom
          total WBO             WBO to atom ...

molecular dipole:
                 x           y           z       tot (Debye)
 q only:       -0.000       0.000      -0.000
   full:       -0.000       0.000      -0.000       0.001

 projected vibrational frequencies (cm-1)
eigval :       -0.00    -0.00    -0.00     0.00     0.00     0.00
eigval :     -659.47  -658.59   458.69   459.03   747.04   747.10
eigval :      765.57  1300.30  1396.97

   temp. (K)  partition function   enthalpy   heat capacity  entropy
                                   cal/mol     cal/K/mol   cal/K/mol   J/K/mol
  10.00  VIB   1.00                    0.000      0.000     -0.001
         ROT   21.3                   29.809      2.981      9.062
         INT   21.3                   29.809      2.981      9.062
         TR   0.277E+25               49.681      4.968     21.322
         TOT                          79.4904     7.9490    30.3837   127.1253

       T/K    H(0)-H(T)+PV         H(T)/Eh          T*S/Eh         G(T)/Eh
   ------------------------------------------------------------------------
    298.15    0.458748E-02    0.179710E-01    0.283630E-01   -0.103920E-01
    120.00    0.153848E-02    0.149220E-01    0.960829E-02    0.531373E-02
    100.00    0.127265E-02    0.146562E-01    0.776477E-02    0.689142E-02
     80.00    0.101451E-02    0.143981E-01    0.598156E-02    0.841649E-02
     60.00    0.760126E-03    0.141437E-01    0.426673E-02    0.987695E-02
     40.00    0.506704E-03    0.138902E-01    0.263904E-02    0.112512E-01
     20.00    0.253352E-03    0.136369E-01    0.114395E-02    0.124929E-01
     10.00    0.126676E-03    0.135102E-01    0.484195E-03    0.130260E-01 (used)
   ------------------------------------------------------------------------

         :::::::::::::::::::::::::::::::::::::::::::::::::::::
         ::                  THERMODYNAMIC                  ::
         :::::::::::::::::::::::::::::::::::::::::::::::::::::
         :: total free energy         -10.165243327133 Eh   ::
         ::.................................................::
         :: total energy              -10.178269353925 Eh   ::
         :: zero point energy           0.013383545559 Eh   ::
         :: G(RRHO) w/o ZPVE           -0.000357518767 Eh   ::
         :: G(RRHO) contrib.            0.013026026792 Eh   ::
         :::::::::::::::::::::::::::::::::::::::::::::::::::::

           -------------------------------------------------
          | TOTAL ENERGY              -10.178269353925 Eh   |
          | TOTAL ENTHALPY            -10.164759132350 Eh   |
          | TOTAL FREE ENERGY         -10.165243327133 Eh   |
          | GRADIENT NORM               0.000511722234 Eh/Î± |
          | HOMO-LUMO GAP               3.468552785825 eV   |
           -------------------------------------------------

 * finished run on 2020/05/12 at 11:44:40.083
