   * xtb version 6.2.2 (9d81278992624c895f80dd42a50cac0aa55982e2) compiled by '@Darwin' on 04/03/2020
          program call               : xtb --input C4N1_21_S_1.input C4N1_21_S_1.xyz --ohess --molden --namespace C4N1_21_S_1 output.out
          number of atoms            :                     5
          number of electrons        :                    21
          charge                     :                     0
          spin                       :                   0.5

   ID    Z sym.   atoms
    1    6 C      1, 2, 4, 5
    2    7 N      3

          :  Hamiltonian                  GFN2-xTB          :
 * total energy  :   -10.9287663 Eh     change        0.7818830E-09 Eh
 * total energy  :   -11.0329432 Eh     change       -0.1041768E+00 Eh
 * total energy  :   -11.0622835 Eh     change       -0.2934038E-01 Eh
 * total energy  :   -11.1063374 Eh     change       -0.4405384E-01 Eh
 * total energy  :   -11.1142360 Eh     change       -0.7898585E-02 Eh
 * total energy  :   -11.1191020 Eh     change       -0.4866021E-02 Eh
 * total energy  :   -11.1202345 Eh     change       -0.1132490E-02 Eh
 * total energy  :   -11.1202824 Eh     change       -0.4789098E-04 Eh
 * total energy  :   -11.1203565 Eh     change       -0.7414654E-04 Eh
 * total energy  :   -11.1204800 Eh     change       -0.1234505E-03 Eh
 * total energy  :   -11.1209812 Eh     change       -0.5012780E-03 Eh
 * total energy  :   -11.1223927 Eh     change       -0.1411450E-02 Eh
 * total energy  :   -11.1149587 Eh     change        0.7433996E-02 Eh
 * total energy  :   -11.1235765 Eh     change       -0.8617827E-02 Eh
 * total energy  :   -11.1237716 Eh     change       -0.1950576E-03 Eh
 * total energy  :   -11.1238191 Eh     change       -0.4749803E-04 Eh
 * total energy  :   -11.1238223 Eh     change       -0.3171582E-05 Eh
 * total energy  :   -11.1238236 Eh     change       -0.1310755E-05 Eh
 * total energy  :   -11.1238245 Eh     change       -0.9363690E-06 Eh
   *** GEOMETRY OPTIMIZATION CONVERGED AFTER 19 ITERATIONS ***

 final structure:
================
5
 xtb: 6.2.2 (9d81278992624c895f80dd42a50cac0aa55982e2)
C        -1.44267098589220    0.80570091477124   -0.06352812604625
C        -0.26376661204598   -0.04672720478177   -0.37256173803237
N         1.01443763878093   -0.08226525035049   -0.57214398497982
C        -1.48804063892581   -0.58101188208769   -0.26042824128098
C         2.18003959808306   -0.09569557755129   -0.74454490966058

          :  Hamiltonian                  GFN2-xTB          :
         :: gradient norm              0.000768333043 Eh/a0 ::
         :: HOMO-LUMO gap              1.778486778064 eV    ::
         :: SCC energy               -11.335463293147 Eh    ::
         :: -> dispersion             -0.002807184348 Eh    ::
         :: repulsion energy           0.211638867527 Eh    ::

    * Orbital Energies and Occupations

         #    Occupation            Energy/Eh            Energy/eV
      -------------------------------------------------------------
         1        2.0000           -0.7286553             -19.8277
         2        2.0000           -0.7180523             -19.5392
         3        2.0000           -0.6770382             -18.4231
         4        2.0000           -0.6067496             -16.5105
         5        2.0000           -0.5855220             -15.9329
         6        2.0000           -0.5451188             -14.8334
         7        2.0000           -0.5273066             -14.3487
         8        2.0000           -0.5046118             -13.7312
         9        2.0000           -0.4773335             -12.9889
        10        2.0000           -0.4318357             -11.7508
        11        1.0000           -0.4085739             -11.1179 (HOMO)
        12                         -0.3432154              -9.3394 (LUMO)
        13                         -0.2878633              -7.8332
        14                         -0.2725646              -7.4169
        15                         -0.1989961              -5.4150
        16                         -0.0330318              -0.8988
        17                          0.0369185               1.0046
        18                          0.3000719               8.1654
        19                          0.5631175              15.3232
        20                          1.0703440              29.1255
      -------------------------------------------------------------
                  HL-Gap            0.0653585 Eh            1.7785 eV

     #   Z        covCN         q      C6AA      Î±(0)
     1   6 C      1.958    -0.114    34.250     9.451
     2   6 C      2.875     0.163    24.474     8.110
     3   7 N      1.821     0.060    20.843     6.765
     4   6 C      1.961    -0.017    31.516     9.066
     5   6 C      0.916    -0.093    38.384    10.372

Wiberg/Mayer (AO) data.
largest (>0.10) Wiberg bond orders for each atom
          total WBO             WBO to atom ...

molecular dipole:
                 x           y           z       tot (Debye)
 q only:        0.010      -0.162      -0.028
   full:        0.018      -0.449      -0.074       1.157

 projected vibrational frequencies (cm-1)
eigval :       -0.00    -0.00    -0.00    -0.00     0.00     0.00
eigval :      187.95   193.28   444.24   488.39   731.00  1010.24
Molecule has the following symmetry elements: (sigma)
It seems to be the Cs point group
eigval :     1231.04  1812.91  2097.81

   temp. (K)  partition function   enthalpy   heat capacity  entropy
                                   cal/mol     cal/K/mol   cal/K/mol   J/K/mol
  10.00  VIB   1.00                    0.000      0.000     -0.012
         ROT   215.                   29.809      2.981     13.657
         INT   215.                   29.809      2.981     13.645
         TR   0.290E+25               49.681      4.968     21.419
         TOT                          79.4904     7.9490    35.0647   146.7105

       T/K    H(0)-H(T)+PV         H(T)/Eh          T*S/Eh         G(T)/Eh
   ------------------------------------------------------------------------
    298.15    0.558238E-02    0.242562E-01    0.325001E-01   -0.824384E-02
    120.00    0.173370E-02    0.204075E-01    0.107831E-01    0.962440E-02
    100.00    0.139185E-02    0.200657E-01    0.867474E-02    0.113909E-01
     80.00    0.107273E-02    0.197466E-01    0.665540E-02    0.130912E-01
     60.00    0.778309E-03    0.194521E-01    0.473794E-02    0.147142E-01
     40.00    0.508541E-03    0.191824E-01    0.294034E-02    0.162420E-01
     20.00    0.253354E-03    0.189272E-01    0.129335E-02    0.176338E-01
     10.00    0.126676E-03    0.188005E-01    0.558791E-03    0.182417E-01 (used)
   ------------------------------------------------------------------------

         :::::::::::::::::::::::::::::::::::::::::::::::::::::
         ::                  THERMODYNAMIC                  ::
         :::::::::::::::::::::::::::::::::::::::::::::::::::::
         :: total free energy         -11.105582777735 Eh   ::
         ::.................................................::
         :: total energy              -11.123824498425 Eh   ::
         :: zero point energy           0.018673835462 Eh   ::
         :: G(RRHO) w/o ZPVE           -0.000432114772 Eh   ::
         :: G(RRHO) contrib.            0.018241720690 Eh   ::
         :::::::::::::::::::::::::::::::::::::::::::::::::::::

           -------------------------------------------------
          | TOTAL ENERGY              -11.123824498425 Eh   |
          | TOTAL ENTHALPY            -11.105023986948 Eh   |
          | TOTAL FREE ENERGY         -11.105582777735 Eh   |
          | GRADIENT NORM               0.000767871627 Eh/Î± |
          | HOMO-LUMO GAP               1.778494621893 eV   |
           -------------------------------------------------

 * finished run on 2020/05/12 at 11:44:07.269
