   * xtb version 6.2.2 (9d81278992624c895f80dd42a50cac0aa55982e2) compiled by '@Darwin' on 04/03/2020
          program call               : xtb --input H2C1O2_4_S_2.input H2C1O2_4_S_2.xyz --ohess --molden --namespace H2C1O2_4_S_2 output.out
          number of atoms            :                     5
          number of electrons        :                    18
          charge                     :                     0
          spin                       :                   1.0

   ID    Z sym.   atoms
    1    8 O      1, 3
    2    6 C      2
    3    1 H      4, 5

          :  Hamiltonian                  GFN2-xTB          :
 * total energy  :   -10.9872854 Eh     change        0.2012461E-08 Eh
 * total energy  :   -11.0009659 Eh     change       -0.1368056E-01 Eh
 * total energy  :   -11.0043647 Eh     change       -0.3398728E-02 Eh
 * total energy  :   -11.0051042 Eh     change       -0.7394847E-03 Eh
 * total energy  :   -11.0077093 Eh     change       -0.2605129E-02 Eh
 * total energy  :   -11.0119864 Eh     change       -0.4277144E-02 Eh
 * total energy  :   -11.0153367 Eh     change       -0.3350311E-02 Eh
 * total energy  :   -11.0279673 Eh     change       -0.1263059E-01 Eh
 * total energy  :   -11.0304015 Eh     change       -0.2434162E-02 Eh
 * total energy  :   -11.0321431 Eh     change       -0.1741621E-02 Eh
 * total energy  :   -11.0330828 Eh     change       -0.9397145E-03 Eh
 * total energy  :   -11.0339397 Eh     change       -0.8568381E-03 Eh
 * total energy  :   -11.0343837 Eh     change       -0.4440010E-03 Eh
 * total energy  :   -11.0345183 Eh     change       -0.1346717E-03 Eh
 * total energy  :   -11.0345485 Eh     change       -0.3019526E-04 Eh
 * total energy  :   -11.0345621 Eh     change       -0.1355190E-04 Eh
 * total energy  :   -11.0345673 Eh     change       -0.5200118E-05 Eh
 * total energy  :   -11.0345763 Eh     change       -0.8966647E-05 Eh
 * total energy  :   -11.0345804 Eh     change       -0.4139389E-05 Eh
   *** GEOMETRY OPTIMIZATION CONVERGED AFTER 19 ITERATIONS ***

 final structure:
================
5
 xtb: 6.2.2 (9d81278992624c895f80dd42a50cac0aa55982e2)
O         0.03008043785160   -0.13930363858882   -0.54693523395467
C        -1.12617541770420   -0.40177101497172   -0.33036294154800
O         1.11068301209431    0.21027261064295    0.83068885229778
H        -1.96566105726968    0.29719854367464   -0.35239123619688
H         1.95107302502798    0.03360249924295    0.39900055940177

          :  Hamiltonian                  GFN2-xTB          :
         :: gradient norm              0.000833854697 Eh/a0 ::
         :: HOMO-LUMO gap              2.116090111269 eV    ::
         :: SCC energy               -11.105286610512 Eh    ::
         :: -> dispersion             -0.001155496261 Eh    ::
         :: repulsion energy           0.070706268924 Eh    ::

    * Orbital Energies and Occupations

         #    Occupation            Energy/Eh            Energy/eV
      -------------------------------------------------------------
         1        2.0000           -0.7589153             -20.6511
         2        2.0000           -0.6839518             -18.6113
         3        2.0000           -0.6424563             -17.4821
         4        2.0000           -0.5986231             -16.2894
         5        2.0000           -0.5905127             -16.0687
         6        2.0000           -0.5489843             -14.9386
         7        2.0000           -0.5292155             -14.4007
         8        2.0000           -0.4647621             -12.6468
         9        1.0000           -0.4156305             -11.3099
        10        1.0000           -0.3453540              -9.3976 (HOMO)
        11                         -0.2675891              -7.2815 (LUMO)
        12                          0.1530906               4.1658
        13                          0.1573352               4.2813
        14                          0.5440480              14.8043
      -------------------------------------------------------------
                  HL-Gap            0.0777650 Eh            2.1161 eV

     #   Z        covCN         q      C6AA      Î±(0)
     1   8 O      1.104    -0.102    16.452     5.444
     2   6 C      1.780     0.091    28.951     8.698
     3   8 O      1.053    -0.403    21.635     6.241
     4   1 H      0.924     0.099     1.791     2.093
     5   1 H      0.805     0.314     0.679     1.294

Wiberg/Mayer (AO) data.
largest (>0.10) Wiberg bond orders for each atom
          total WBO             WBO to atom ...

molecular dipole:
                 x           y           z       tot (Debye)
 q only:       -0.254      -0.126      -0.412
   full:       -0.130       0.038      -0.506       1.332

 projected vibrational frequencies (cm-1)
eigval :       -0.00    -0.00    -0.00     0.00     0.00     0.00
eigval :      186.00   244.14   330.73   614.74   783.32  1012.92
eigval :     1706.84  2822.22  3611.97

   temp. (K)  partition function   enthalpy   heat capacity  entropy
                                   cal/mol     cal/K/mol   cal/K/mol   J/K/mol
  10.00  VIB   1.00                    0.000      0.000     -0.009
         ROT   71.6                   29.809      2.981     11.469
         INT   71.6                   29.809      2.981     11.459
         TR   0.186E+25               49.681      4.968     20.529
         TOT                          79.4904     7.9490    31.9885   133.8398

       T/K    H(0)-H(T)+PV         H(T)/Eh          T*S/Eh         G(T)/Eh
   ------------------------------------------------------------------------
    298.15    0.551028E-02    0.312829E-01    0.308901E-01    0.392771E-03
    120.00    0.171636E-02    0.274890E-01    0.101640E-01    0.173250E-01
    100.00    0.137709E-02    0.271497E-01    0.816112E-02    0.189886E-01
     80.00    0.106233E-02    0.268349E-01    0.624841E-02    0.205865E-01
     60.00    0.773710E-03    0.265463E-01    0.443773E-02    0.221086E-01
     40.00    0.507940E-03    0.262805E-01    0.274337E-02    0.235372E-01
     20.00    0.253353E-03    0.260260E-01    0.119526E-02    0.248307E-01
     10.00    0.126676E-03    0.258993E-01    0.509769E-03    0.253895E-01 (used)
   ------------------------------------------------------------------------

         :::::::::::::::::::::::::::::::::::::::::::::::::::::
         ::                  THERMODYNAMIC                  ::
         :::::::::::::::::::::::::::::::::::::::::::::::::::::
         :: total free energy         -11.009190873633 Eh   ::
         ::.................................................::
         :: total energy              -11.034580388972 Eh   ::
         :: zero point energy           0.025772608268 Eh   ::
         :: G(RRHO) w/o ZPVE           -0.000383092929 Eh   ::
         :: G(RRHO) contrib.            0.025389515339 Eh   ::
         :::::::::::::::::::::::::::::::::::::::::::::::::::::

           -------------------------------------------------
          | TOTAL ENERGY              -11.034580388972 Eh   |
          | TOTAL ENTHALPY            -11.008681104688 Eh   |
          | TOTAL FREE ENERGY         -11.009190873633 Eh   |
          | GRADIENT NORM               0.000833768015 Eh/Î± |
          | HOMO-LUMO GAP               2.116092091244 eV   |
           -------------------------------------------------

 * finished run on 2020/05/12 at 11:43:53.199
