   * xtb version 6.2.2 (9d81278992624c895f80dd42a50cac0aa55982e2) compiled by '@Darwin' on 04/03/2020
          program call               : xtb --input C4N1_10_S_1.input C4N1_10_S_1.xyz --ohess --molden --namespace C4N1_10_S_1 output.out
          number of atoms            :                     5
          number of electrons        :                    21
          charge                     :                     0
          spin                       :                   0.5

   ID    Z sym.   atoms
    1    6 C      1, 3-5
    2    7 N      2

          :  Hamiltonian                  GFN2-xTB          :
 * total energy  :   -10.8136527 Eh     change       -0.1995755E-09 Eh
 * total energy  :   -10.8563646 Eh     change       -0.4271189E-01 Eh
 * total energy  :   -10.8913119 Eh     change       -0.3494725E-01 Eh
 * total energy  :   -10.9164012 Eh     change       -0.2508939E-01 Eh
 * total energy  :   -10.9420157 Eh     change       -0.2561443E-01 Eh
 * total energy  :   -10.9634869 Eh     change       -0.2147125E-01 Eh
 * total energy  :   -11.0274172 Eh     change       -0.6393024E-01 Eh
 * total energy  :   -11.0409022 Eh     change       -0.1348500E-01 Eh
 * total energy  :   -11.0165450 Eh     change        0.2435719E-01 Eh
 * total energy  :   -11.0539844 Eh     change       -0.3743939E-01 Eh
 * total energy  :   -11.0641841 Eh     change       -0.1019969E-01 Eh
 * total energy  :   -11.0665890 Eh     change       -0.2404931E-02 Eh
 * total energy  :   -11.0699163 Eh     change       -0.3327262E-02 Eh
 * total energy  :   -11.0707230 Eh     change       -0.8067616E-03 Eh
 * total energy  :   -11.0708192 Eh     change       -0.9620243E-04 Eh
 * total energy  :   -11.0708711 Eh     change       -0.5192422E-04 Eh
 * total energy  :   -11.0708750 Eh     change       -0.3825786E-05 Eh
 * total energy  :   -11.0708765 Eh     change       -0.1521682E-05 Eh
 * total energy  :   -11.0708777 Eh     change       -0.1248979E-05 Eh
   *** GEOMETRY OPTIMIZATION CONVERGED AFTER 19 ITERATIONS ***

 final structure:
================
5
 xtb: 6.2.2 (9d81278992624c895f80dd42a50cac0aa55982e2)
C         0.16671744009830    1.07566249190902    0.02689156033035
N        -0.91712084879801    0.06586985867790   -0.00763900810176
C         0.37857140065253   -0.00540649322742   -0.89677937965337
C         0.01122505051153   -1.08858376947618   -0.02538742701162
C         0.36060595753565   -0.04754208788332    0.90291425443639

          :  Hamiltonian                  GFN2-xTB          :
         :: gradient norm              0.000728596309 Eh/a0 ::
         :: HOMO-LUMO gap              2.484988696537 eV    ::
         :: SCC energy               -11.198540513121 Eh    ::
         :: -> dispersion             -0.002479607707 Eh    ::
         :: repulsion energy           0.127662758204 Eh    ::

    * Orbital Energies and Occupations

         #    Occupation            Energy/Eh            Energy/eV
      -------------------------------------------------------------
         1        2.0000           -0.7941045             -21.6087
         2        2.0000           -0.6840114             -18.6129
         3        2.0000           -0.6661404             -18.1266
         4        2.0000           -0.6416986             -17.4615
         5        2.0000           -0.5505755             -14.9819
         6        2.0000           -0.5400964             -14.6968
         7        2.0000           -0.5041742             -13.7193
         8        2.0000           -0.5015234             -13.6471
         9        2.0000           -0.4972900             -13.5319
        10        2.0000           -0.4770726             -12.9818
        11        1.0000           -0.4216398             -11.4734 (HOMO)
        12                         -0.3303182              -8.9884 (LUMO)
        13                         -0.2459148              -6.6917
        14                         -0.2382805              -6.4839
        15                         -0.0958108              -2.6071
        16                         -0.0616235              -1.6769
        17                          0.0802151               2.1828
        18                          0.0923509               2.5130
        19                          0.2313273               6.2947
        20                          0.4124944              11.2245
      -------------------------------------------------------------
                  HL-Gap            0.0913217 Eh            2.4850 eV

     #   Z        covCN         q      C6AA      Î±(0)
     1   6 C      3.044     0.027    27.370     8.581
     2   7 N      3.594    -0.083    22.850     7.100
     3   6 C      3.689     0.015    20.508     6.481
     4   6 C      3.044     0.026    27.372     8.581
     5   6 C      3.689     0.015    20.508     6.481

Wiberg/Mayer (AO) data.
largest (>0.10) Wiberg bond orders for each atom
          total WBO             WBO to atom ...

molecular dipole:
                 x           y           z       tot (Debye)
 q only:        0.174      -0.012       0.001
   full:       -0.032       0.003      -0.000       0.081

 projected vibrational frequencies (cm-1)
eigval :       -0.00    -0.00    -0.00     0.00     0.00     0.00
eigval :      300.50   430.82   701.03   773.81  1040.74  1047.70
eigval :     1079.40  1322.58  1421.15

   temp. (K)  partition function   enthalpy   heat capacity  entropy
                                   cal/mol     cal/K/mol   cal/K/mol   J/K/mol
  10.00  VIB   1.00                    0.000      0.000     -0.002
         ROT   63.1                   29.809      2.981     11.217
         INT   63.1                   29.809      2.981     11.215
         TR   0.290E+25               49.681      4.968     21.419
         TOT                          79.4904     7.9490    32.6345   136.5426

       T/K    H(0)-H(T)+PV         H(T)/Eh          T*S/Eh         G(T)/Eh
   ------------------------------------------------------------------------
    298.15    0.478163E-02    0.232752E-01    0.297840E-01   -0.650882E-02
    120.00    0.157082E-02    0.200644E-01    0.100809E-01    0.998350E-02
    100.00    0.128934E-02    0.197829E-01    0.814438E-02    0.116385E-01
     80.00    0.102045E-02    0.195140E-01    0.627574E-02    0.132383E-01
     60.00    0.761137E-03    0.192547E-01    0.448320E-02    0.147715E-01
     40.00    0.506732E-03    0.190003E-01    0.278260E-02    0.162177E-01
     20.00    0.253352E-03    0.187469E-01    0.121571E-02    0.175312E-01
     10.00    0.126676E-03    0.186202E-01    0.520063E-03    0.181002E-01 (used)
   ------------------------------------------------------------------------

         :::::::::::::::::::::::::::::::::::::::::::::::::::::
         ::                  THERMODYNAMIC                  ::
         :::::::::::::::::::::::::::::::::::::::::::::::::::::
         :: total free energy         -11.052777563769 Eh   ::
         ::.................................................::
         :: total energy              -11.070877741080 Eh   ::
         :: zero point energy           0.018493564562 Eh   ::
         :: G(RRHO) w/o ZPVE           -0.000393387251 Eh   ::
         :: G(RRHO) contrib.            0.018100177311 Eh   ::
         :::::::::::::::::::::::::::::::::::::::::::::::::::::

           -------------------------------------------------
          | TOTAL ENERGY              -11.070877741080 Eh   |
          | TOTAL ENTHALPY            -11.052257500502 Eh   |
          | TOTAL FREE ENERGY         -11.052777563769 Eh   |
          | GRADIENT NORM               0.000728902445 Eh/Î± |
          | HOMO-LUMO GAP               2.484989025755 eV   |
           -------------------------------------------------

 * finished run on 2020/05/12 at 11:44:01.963
