 Gaussian 16, Revision B.01,

 --------------------------------------------------------
 #P M062X/cc-pvtz nosymm opt(noeigentest) optcyc=120 freq
 --------------------------------------------------------

 -----
 Title
 -----
 Symbolic Z-matrix:
 Charge =  0 Multiplicity = 1

 SCF Done:  E(RM062X) =  -234.579091350     A.U. after   12 cycles
 SCF Done:  E(RM062X) =  -234.582986815     A.U. after   11 cycles
 SCF Done:  E(RM062X) =  -234.583120530     A.U. after    9 cycles
 SCF Done:  E(RM062X) =  -234.583128180     A.U. after    7 cycles
 SCF Done:  E(RM062X) =  -234.583128540     A.U. after    6 cycles
 Optimization completed.
    -- Stationary point found.
 Normal termination of Gaussian 16 at Tue Sep 29 17:03:16 2020.

 -------------------------------------------------------------------
 #P Geom=AllCheck Guess=TCheck SCRF=Check GenChk RM062X/CC-pVTZ Freq
 -------------------------------------------------------------------

 Structure from the checkpoint file:  "input.chk"
 -----
 Title
 -----
 Charge =  0 Multiplicity = 1

 SCF Done:  E(RM062X) =  -234.583128540     A.U. after    1 cycles

  Exact polarizability:  86.297   0.001  47.090  28.417   0.000  98.544
 Approx polarizability: 102.272   0.002  61.310  25.456   0.001 101.889

 ******    1 imaginary frequencies (negative Signs) ******

                      1                      2                      3
                      A                      A                      A
 Frequencies --   -106.9256               128.1194               141.9141
 Red. masses --      1.8775                 3.0811                 2.9490
 Frc consts  --      0.0126                 0.0298                 0.0350
 IR Inten    --      0.4406                 1.1654                 0.5252

                      4                      5                      6
                      A                      A                      A
 Frequencies --    216.7737               301.1701               322.7315
 Red. masses --      1.2870                 1.4990                 2.6032
 Frc consts  --      0.0356                 0.0801                 0.1598
 IR Inten    --      0.3250                 1.6776                 3.1162

                      7                      8                      9
                      A                      A                      A
 Frequencies --    437.3365               520.6811               643.9849
 Red. masses --      3.6082                 2.6413                 1.2592
 Frc consts  --      0.4066                 0.4219                 0.3077
 IR Inten    --      0.5982                 0.0298                 1.2427

                     10                     11                     12
                      A                      A                      A
 Frequencies --    761.1329               885.1171               929.7428
 Red. masses --      1.2620                 1.6111                 1.6703
 Frc consts  --      0.4307                 0.7437                 0.8507
 IR Inten    --      7.8196                 3.5161                 1.8391

                     13                     14                     15
                      A                      A                      A
 Frequencies --    956.4812               960.5412               996.0784
 Red. masses --      1.2982                 1.6297                 1.1964
 Frc consts  --      0.6997                 0.8859                 0.6994
 IR Inten    --     33.9299                 0.7410                21.2226

                     16                     17                     18
                      A                      A                      A
 Frequencies --   1055.9726              1074.4790              1104.1157
 Red. masses --      1.1046                 2.3149                 1.5371
 Frc consts  --      0.7257                 1.5746                 1.1040
 IR Inten    --     38.7348                 2.3358                 0.9874

                     19                     20                     21
                      A                      A                      A
 Frequencies --   1121.9084              1206.4847              1274.0588
 Red. masses --      2.1061                 2.0282                 1.2653
 Frc consts  --      1.5619                 1.7394                 1.2101
 IR Inten    --      4.2855                 4.6045                 2.8447

                     22                     23                     24
                      A                      A                      A
 Frequencies --   1288.8166              1323.1292              1337.0357
 Red. masses --      1.1686                 1.3839                 1.3127
 Frc consts  --      1.1437                 1.4274                 1.3826
 IR Inten    --      0.0308                 1.3087                 3.9778

                     25                     26                     27
                      A                      A                      A
 Frequencies --   1364.8458              1415.9165              1457.8058
 Red. masses --      1.4804                 1.2609                 1.2434
 Frc consts  --      1.6248                 1.4894                 1.5569
 IR Inten    --     15.8067                 4.4550                 0.9247

                     28                     29                     30
                      A                      A                      A
 Frequencies --   1480.9911              1504.8469              1508.0379
 Red. masses --      1.0714                 1.0377                 1.0531
 Frc consts  --      1.3846                 1.3845                 1.4110
 IR Inten    --      2.5475                 6.6688                 5.1996

                     31                     32                     33
                      A                      A                      A
 Frequencies --   1698.3833              1755.0635              3053.7827
 Red. masses --      4.9481                 5.9524                 1.0598
 Frc consts  --      8.4092                10.8025                 5.8230
 IR Inten    --      9.3353                12.5328                11.4283

                     34                     35                     36
                      A                      A                      A
 Frequencies --   3063.3269              3080.8761              3130.4270
 Red. masses --      1.0360                 1.1022                 1.1028
 Frc consts  --      5.7281                 6.1638                 6.3673
 IR Inten    --     29.1495                 5.8067                28.8385

                     37                     38                     39
                      A                      A                      A
 Frequencies --   3140.7257              3143.9042              3148.5025
 Red. masses --      1.0948                 1.0977                 1.0869
 Frc consts  --      6.3628                 6.3927                 6.3482
 IR Inten    --      3.2378                23.3428                16.1747

                     40                     41                     42
                      A                      A                      A
 Frequencies --   3163.0893              3169.9973              3257.0693
 Red. masses --      1.0661                 1.0853                 1.1156
 Frc consts  --      6.2845                 6.4257                 6.9731
 IR Inten    --     14.8155                 4.7757                 8.6507

 - Thermochemistry -
 -------------------
 Temperature   298.150 Kelvin.  Pressure   1.00000 Atm.
 Atom     1 has atomic number  6 and mass  12.00000

 Molecular mass:    82.07825 amu.
 Principal axes and moments of inertia in atomic units:
                           1         2         3
     Eigenvalues --    90.370661422.788931491.02780
           X            0.53921   0.84217   0.00000
           Y           -0.00000   0.00000   1.00000
           Z            0.84217  -0.53921   0.00000
 This molecule is an asymmetric top.
 Rotational symmetry number  1.
 Rotational temperatures (Kelvin)      0.95843     0.06088     0.05809
 Rotational constants (GHZ):          19.97043     1.26845     1.21040
    1 imaginary frequencies ignored.
 Zero-point vibrational energy     373984.9 (Joules/Mol)
                                   89.38454 (Kcal/Mol)
 Warning -- explicit consideration of   7 degrees of freedom as
           vibrations may cause significant error
 Vibrational temperatures:    184.34   204.18   311.89   433.32   464.34
          (Kelvin)            629.23   749.14   926.55  1095.10  1273.49
                             1337.69  1376.16  1382.00  1433.13  1519.31
                             1545.94  1588.58  1614.18  1735.86  1833.09
                             1854.32  1903.69  1923.70  1963.71  2037.19
                             2097.46  2130.82  2165.14  2169.73  2443.59
                             2525.14  4393.71  4407.44  4432.69  4503.99
                             4518.80  4523.38  4529.99  4550.98  4560.92
                             4686.20

 Zero-point correction=                           0.142443 (Hartree/Particle)
 Thermal correction to Energy=                    0.149108
 Thermal correction to Enthalpy=                  0.150052
 Thermal correction to Gibbs Free Energy=         0.112286
 Sum of electronic and zero-point Energies=           -234.440685
 Sum of electronic and thermal Energies=              -234.434021
 Sum of electronic and thermal Enthalpies=            -234.433077
 Sum of electronic and thermal Free Energies=         -234.470843

                     E (Thermal)             CV                S
                      KCal/Mol        Cal/Mol-Kelvin    Cal/Mol-Kelvin
 Total                   93.566             23.923             79.485
 Electronic               0.000              0.000              0.000
 Translational            0.889              2.981             39.129
 Rotational               0.889              2.981             26.752
 Vibrational             91.789             17.961             13.603
 Vibration     1          0.611              1.925              2.974
 Vibration     2          0.615              1.911              2.778
 Vibration     3          0.646              1.815              1.986
 Vibration     4          0.693              1.671              1.410
 Vibration     5          0.708              1.630              1.296
 Vibration     6          0.798              1.389              0.835
 Vibration     7          0.876              1.204              0.608

 Optimization completed.
    -- Stationary point found.
 Normal termination of Gaussian 16 at Tue Sep 29 17:13:47 2020.
 Gaussian 16:  ES64L-G16RevB.01 20-Dec-2017

 -----------------------------------------------
 #P CCSD(T)/aug-cc-pvtz geom=allcheck guess=read
 -----------------------------------------------

 Structure from the checkpoint file:  "input.chk"
 -----
 Title
 -----
 Charge =  0 Multiplicity = 1

                         Standard orientation:
 ---------------------------------------------------------------------
 Center     Atomic      Atomic             Coordinates (Angstroms)
 Number     Number       Type             X           Y           Z
 ---------------------------------------------------------------------
      1          6           0       -1.970502   -0.442011   -0.000015
      2          6           0       -0.739136    0.333247   -0.000002
      3          6           0        0.477096   -0.207595   -0.000056
      4          6           0        1.767652    0.567086   -0.000054
      5          6           0        2.994238   -0.337106    0.000070
      6          1           0        1.794592    1.224001    0.872549
      7          1           0        1.794674    1.223868   -0.872755
      8          1           0        3.000403   -0.979963    0.880931
      9          1           0        3.915842    0.242758    0.000069
     10          1           0        3.000484   -0.980094   -0.880695
     11          6           0       -3.188740    0.090923    0.000040
     12          1           0       -1.856965   -1.521842   -0.000073
     13          1           0       -4.077232   -0.524150    0.000028
     14          1           0       -3.329064    1.165030    0.000098
     15          1           0       -0.845579    1.415507    0.000057
     16          1           0        0.559198   -1.292379   -0.000111
 ---------------------------------------------------------------------

 SCF Done:  E(RHF) =  -233.076203779     A.U. after   11 cycles
 E2 =    -0.1013352170D+01 EUMP2 =    -0.23408955594870D+03
 CCSD(T)
 CCSD(T)= -0.23419149731D+03

 The electronic state is 1-A.
 Alpha  occ. eigenvalues --  -11.23358 -11.23075 -11.22670 -11.22523 -11.21968
 Alpha  occ. eigenvalues --  -11.21639  -1.10273  -1.05054  -0.97949  -0.86272
 Alpha  occ. eigenvalues --   -0.78297  -0.75267  -0.64798  -0.61917  -0.61537
 Alpha  occ. eigenvalues --   -0.57673  -0.54352  -0.51306  -0.50449  -0.49763
 Alpha  occ. eigenvalues --   -0.47664  -0.43320  -0.31142
 Alpha virt. eigenvalues --    0.03042   0.03275   0.03401   0.04361   0.04779
 Alpha virt. eigenvalues --    0.05044   0.06211   0.06698   0.07318   0.08554
 Alpha virt. eigenvalues --    0.08675   0.09710   0.10778   0.10995   0.11624

 Mulliken charges:
               1
     1  C   -0.129833
     2  C    0.175237
     3  C   -0.522844
     4  C   -0.256782
     5  C   -0.958075
     6  H    0.244755
     7  H    0.244755
     8  H    0.269871
     9  H    0.267231
    10  H    0.269873
    11  C   -1.185904
    12  H    0.236872
    13  H    0.486930
    14  H    0.250716
    15  H    0.229962
    16  H    0.377238
 Sum of Mulliken charges =  -0.00000

 Dipole moment (field-independent basis, Debye):
    X=              0.7076    Y=              0.0972    Z=             -0.0000  Tot=              0.7143
 Quadrupole moment (field-independent basis, Debye-Ang):
   XX=            -37.7659   YY=            -36.6173   ZZ=            -42.2797
   XY=              0.0986   XZ=             -0.0002   YZ=              0.0003

 CCSD=-234.1426388\CCSD(T)=-234.1914973\RMSD=6.114e-09\PG=C01 [X(C6H10)
 Normal termination of Gaussian 16 at Wed Sep 30 12:39:31 2020.
