   * xtb version 6.2.2 (9d81278992624c895f80dd42a50cac0aa55982e2) compiled by '@Darwin' on 04/03/2020
          program call               : xtb --input C3_1_S_0.input C3_1_S_0.xyz --ohess --molden --namespace C3_1_S_0 output.out
          number of atoms            :                     3
          number of electrons        :                    12
          charge                     :                     0
          spin                       :                   0.0

   ID    Z sym.   atoms
    1    6 C      1-3

          :  Hamiltonian                  GFN2-xTB          :
 * total energy  :    -5.9894426 Eh     change       -0.2406964E-11 Eh
 * total energy  :    -6.0132109 Eh     change       -0.2376830E-01 Eh
 * total energy  :    -6.0150444 Eh     change       -0.1833581E-02 Eh
 * total energy  :    -6.0157737 Eh     change       -0.7292409E-03 Eh
 * total energy  :    -6.0157825 Eh     change       -0.8772400E-05 Eh
 * total energy  :    -6.0157830 Eh     change       -0.4876069E-06 Eh
 * total energy  :    -6.0157880 Eh     change       -0.5064264E-05 Eh
 * total energy  :    -6.0158177 Eh     change       -0.2966993E-04 Eh
 * total energy  :    -6.0159964 Eh     change       -0.1787278E-03 Eh
 * total energy  :    -6.0169116 Eh     change       -0.9152355E-03 Eh
 * total energy  :    -6.0718859 Eh     change       -0.1721436E-01 Eh
 * total energy  :    -6.0821549 Eh     change       -0.1026900E-01 Eh
 * total energy  :    -6.0876977 Eh     change       -0.5542766E-02 Eh
 * total energy  :    -6.0896063 Eh     change       -0.1908612E-02 Eh
 * total energy  :    -6.0908003 Eh     change       -0.1194017E-02 Eh
 * total energy  :    -6.0912869 Eh     change       -0.4866199E-03 Eh
 * total energy  :    -6.0914700 Eh     change       -0.1831182E-03 Eh
 * total energy  :    -6.0915400 Eh     change       -0.6995860E-04 Eh
 * total energy  :    -6.0915412 Eh     change       -0.1229781E-05 Eh
   *** GEOMETRY OPTIMIZATION CONVERGED AFTER 22 ITERATIONS ***

 final structure:
================
3
 xtb: 6.2.2 (9d81278992624c895f80dd42a50cac0aa55982e2)
C         1.01943553944489   -0.67308209066067    0.04216196460450
C        -0.84308708148813    0.88432994684765   -0.03499251262097
C        -0.17634845795676   -0.21124785618697   -0.00717045198353

          :  Hamiltonian                  GFN2-xTB          :
         :: gradient norm              0.000573153932 Eh/a0 ::
         :: HOMO-LUMO gap              1.464334757084 eV    ::
         :: SCC energy                -6.224675010414 Eh    ::
         :: -> dispersion             -0.001037988051 Eh    ::
         :: repulsion energy           0.133133795789 Eh    ::

    * Orbital Energies and Occupations

         #    Occupation            Energy/Eh            Energy/eV
      -------------------------------------------------------------
         1        2.0000           -0.7030927             -19.1321
         2        2.0000           -0.6647978             -18.0901
         3        2.0000           -0.5300046             -14.4222
         4        2.0000           -0.5222366             -14.2108
         5        2.0000           -0.5029981             -13.6873
         6        2.0000           -0.4587599             -12.4835 (HOMO)
         7                         -0.4049466             -11.0192 (LUMO)
Molecule has the following symmetry elements: (C2) 2*(sigma)
It seems to be the C2v point group
         8                         -0.3936973             -10.7130
         9                         -0.2352954              -6.4027
        10                         -0.1965140              -5.3474
        11                          0.4197709              11.4225
        12                          0.8601051              23.4046
      -------------------------------------------------------------
                  HL-Gap            0.0538133 Eh            1.4643 eV

     #   Z        covCN         q      C6AA      Î±(0)
     1   6 C      0.992    -0.051    37.555    10.299
     2   6 C      0.992    -0.051    37.555    10.299
     3   6 C      1.962     0.101    28.554     8.629

Wiberg/Mayer (AO) data.
largest (>0.10) Wiberg bond orders for each atom
          total WBO             WBO to atom ...

molecular dipole:
                 x           y           z       tot (Debye)
 q only:       -0.051      -0.061      -0.002
   full:       -0.219      -0.262      -0.009       0.868

 projected vibrational frequencies (cm-1)
eigval :       -0.00    -0.00    -0.00     0.00     0.00     0.00
eigval :      134.98  1424.99  1960.13

   temp. (K)  partition function   enthalpy   heat capacity  entropy
                                   cal/mol     cal/K/mol   cal/K/mol   J/K/mol
  10.00  VIB   1.00                    0.000      0.000     -0.015
         ROT   9.90                   29.809      2.981      7.537
         INT   9.90                   29.809      2.981      7.521
         TR   0.129E+25               49.681      4.968     19.800
         TOT                          79.4904     7.9490    27.3214   114.3127

       T/K    H(0)-H(T)+PV         H(T)/Eh          T*S/Eh         G(T)/Eh
   ------------------------------------------------------------------------
    298.15    0.445410E-02    0.124735E-01    0.271781E-01   -0.147046E-01
    120.00    0.167216E-02    0.969155E-02    0.924129E-02    0.450261E-03
    100.00    0.136973E-02    0.938911E-02    0.742579E-02    0.196332E-02
     80.00    0.107294E-02    0.909232E-02    0.567611E-02    0.341622E-02
     60.00    0.785210E-03    0.880459E-02    0.400910E-02    0.479550E-02
     40.00    0.511532E-03    0.853091E-02    0.245114E-02    0.607978E-02
     20.00    0.253389E-03    0.827277E-02    0.104679E-02    0.722598E-02
     10.00    0.126676E-03    0.814606E-02    0.435394E-03    0.771066E-02 (used)
   ------------------------------------------------------------------------

         :::::::::::::::::::::::::::::::::::::::::::::::::::::
         ::                  THERMODYNAMIC                  ::
         :::::::::::::::::::::::::::::::::::::::::::::::::::::
         :: total free energy          -6.083830551909 Eh   ::
         ::.................................................::
         :: total energy               -6.091541216633 Eh   ::
         :: zero point energy           0.008019382625 Eh   ::
         :: G(RRHO) w/o ZPVE           -0.000308717901 Eh   ::
         :: G(RRHO) contrib.            0.007710664724 Eh   ::
         :::::::::::::::::::::::::::::::::::::::::::::::::::::

           -------------------------------------------------
          | TOTAL ENERGY               -6.091541216633 Eh   |
          | TOTAL ENTHALPY             -6.083395157991 Eh   |
          | TOTAL FREE ENERGY          -6.083830551909 Eh   |
          | GRADIENT NORM               0.000573103649 Eh/Î± |
          | HOMO-LUMO GAP               1.464334437707 eV   |
           -------------------------------------------------

 * finished run on 2020/05/12 at 11:44:25.462
