   * xtb version 6.2.2 (9d81278992624c895f80dd42a50cac0aa55982e2) compiled by '@Darwin' on 04/03/2020
          program call               : xtb --input C4N1_36_S_1.input C4N1_36_S_1.xyz --ohess --molden --namespace C4N1_36_S_1 output.out
          number of atoms            :                     5
          number of electrons        :                    21
          charge                     :                     0
          spin                       :                   0.5

   ID    Z sym.   atoms
    1    6 C      1-4
    2    7 N      5

          :  Hamiltonian                  GFN2-xTB          :
 * total energy  :   -10.9537695 Eh     change        0.6699743E-09 Eh
 * total energy  :   -11.0308671 Eh     change       -0.7709760E-01 Eh
 * total energy  :   -11.0279014 Eh     change        0.2965728E-02 Eh
 * total energy  :   -11.0717891 Eh     change       -0.4388773E-01 Eh
 * total energy  :   -11.0796913 Eh     change       -0.7902189E-02 Eh
 * total energy  :   -11.0851081 Eh     change       -0.5416859E-02 Eh
 * total energy  :   -11.0898061 Eh     change       -0.4697985E-02 Eh
 * total energy  :   -11.0898954 Eh     change       -0.8925339E-04 Eh
 * total energy  :   -11.0926956 Eh     change       -0.2800260E-02 Eh
 * total energy  :   -11.0933521 Eh     change       -0.6564575E-03 Eh
 * total energy  :   -11.1510834 Eh     change       -0.2210500E-03 Eh
 * total energy  :   -11.1512352 Eh     change       -0.1518539E-03 Eh
 * total energy  :   -11.1512443 Eh     change       -0.9084772E-05 Eh
 * total energy  :   -11.1505745 Eh     change        0.6697994E-03 Eh
 * total energy  :   -11.1513619 Eh     change       -0.7874415E-03 Eh
 * total energy  :   -11.1513744 Eh     change       -0.1244006E-04 Eh
 * total energy  :   -11.1513955 Eh     change       -0.2115527E-04 Eh
 * total energy  :   -11.1514073 Eh     change       -0.1173840E-04 Eh
 * total energy  :   -11.1514118 Eh     change       -0.4569094E-05 Eh
   *** GEOMETRY OPTIMIZATION CONVERGED AFTER 50 ITERATIONS ***

 final structure:
================
5
 xtb: 6.2.2 (9d81278992624c895f80dd42a50cac0aa55982e2)
C        -1.55246329307913   -0.34212389990161   -0.35069848576128
C        -1.33782182943613    1.03192999529714   -0.23830410422211
C         1.03261164459381   -0.24507709184171    0.21146561378715
C        -0.28474248894415    0.00612440420898   -0.05959871029572
N         2.14241496686559   -0.45085340776279    0.43713568649196

          :  Hamiltonian                  GFN2-xTB          :
         :: gradient norm              0.000760737354 Eh/a0 ::
         :: HOMO-LUMO gap              1.746497852044 eV    ::
         :: SCC energy               -11.383334328900 Eh    ::
         :: -> dispersion             -0.002690744835 Eh    ::
         :: repulsion energy           0.231922553930 Eh    ::

    * Orbital Energies and Occupations

         #    Occupation            Energy/Eh            Energy/eV
      -------------------------------------------------------------
         1        2.0000           -0.7291915             -19.8423
         2        2.0000           -0.6931778             -18.8623
         3        2.0000           -0.6564511             -17.8629
         4        2.0000           -0.5969960             -16.2451
         5        2.0000           -0.5623053             -15.3011
         6        2.0000           -0.5379694             -14.6389
         7        2.0000           -0.5258420             -14.3089
         8        2.0000           -0.5133082             -13.9678
         9        2.0000           -0.4708043             -12.8112
        10        2.0000           -0.4424866             -12.0407
        11        1.0000           -0.4205593             -11.4440 (HOMO)
        12                         -0.3563768              -9.6975 (LUMO)
        13                         -0.2965387              -8.0692
        14                         -0.2581440              -7.0245
        15                         -0.1784549              -4.8560
        16                         -0.0263330              -0.7166
        17                          0.0597047               1.6246
        18                          0.3141631               8.5488
        19                          0.5766286              15.6909
        20                          1.1964800              32.5579
      -------------------------------------------------------------
                  HL-Gap            0.0641825 Eh            1.7465 eV

     #   Z        covCN         q      C6AA      Î±(0)
     1   6 C      1.961     0.008    30.853     8.970
     2   6 C      1.958    -0.089    33.511     9.348
     3   6 C      1.891     0.128    27.973     8.542
     4   6 C      2.940     0.113    25.504     8.283
     5   7 N      0.911    -0.161    24.485     7.156

Wiberg/Mayer (AO) data.
largest (>0.10) Wiberg bond orders for each atom
          total WBO             WBO to atom ...

molecular dipole:
                 x           y           z       tot (Debye)
 q only:       -0.263      -0.099      -0.060
   full:       -0.342      -0.367      -0.088       1.294
Molecule has the following symmetry elements: (sigma)
It seems to be the Cs point group

 projected vibrational frequencies (cm-1)
eigval :       -0.00    -0.00    -0.00     0.00     0.00     0.00
eigval :      189.66   201.31   499.65   546.33   707.17   940.44
eigval :     1202.49  1793.01  2300.85

   temp. (K)  partition function   enthalpy   heat capacity  entropy
                                   cal/mol     cal/K/mol   cal/K/mol   J/K/mol
  10.00  VIB   1.00                    0.000      0.000     -0.011
         ROT   234.                   29.809      2.981     13.819
         INT   234.                   29.809      2.981     13.808
         TR   0.290E+25               49.681      4.968     21.419
         TOT                          79.4904     7.9490    35.2275   147.3917

       T/K    H(0)-H(T)+PV         H(T)/Eh          T*S/Eh         G(T)/Eh
   ------------------------------------------------------------------------
    298.15    0.550338E-02    0.245965E-01    0.324238E-01   -0.782727E-02
    120.00    0.171939E-02    0.208125E-01    0.107936E-01    0.100189E-01
    100.00    0.138356E-02    0.204767E-01    0.868888E-02    0.117878E-01
     80.00    0.106857E-02    0.201617E-01    0.667036E-02    0.134913E-01
     60.00    0.776729E-03    0.198698E-01    0.475137E-02    0.151185E-01
     40.00    0.508305E-03    0.196014E-01    0.295036E-02    0.166511E-01
     20.00    0.253354E-03    0.193465E-01    0.129852E-02    0.180480E-01
     10.00    0.126676E-03    0.192198E-01    0.561385E-03    0.186584E-01 (used)
   ------------------------------------------------------------------------

         :::::::::::::::::::::::::::::::::::::::::::::::::::::
         ::                  THERMODYNAMIC                  ::
         :::::::::::::::::::::::::::::::::::::::::::::::::::::
         :: total free energy         -11.132753438894 Eh   ::
         ::.................................................::
         :: total energy              -11.151411848160 Eh   ::
         :: zero point energy           0.019093118456 Eh   ::
         :: G(RRHO) w/o ZPVE           -0.000434709189 Eh   ::
         :: G(RRHO) contrib.            0.018658409267 Eh   ::
         :::::::::::::::::::::::::::::::::::::::::::::::::::::

           -------------------------------------------------
          | TOTAL ENERGY              -11.151411848160 Eh   |
          | TOTAL ENTHALPY            -11.132192053689 Eh   |
          | TOTAL FREE ENERGY         -11.132753438894 Eh   |
          | GRADIENT NORM               0.000760789755 Eh/Î± |
          | HOMO-LUMO GAP               1.746494185239 eV   |
           -------------------------------------------------

 * finished run on 2020/05/12 at 11:44:14.416
