   * xtb version 6.2.2 (9d81278992624c895f80dd42a50cac0aa55982e2) compiled by '@Darwin' on 04/03/2020
          program call               : xtb --input H2O1_0_S_2.input H2O1_0_S_2.xyz --ohess --molden --namespace H2O1_0_S_2 output.out
          number of atoms            :                     3
          number of electrons        :                     8
          charge                     :                     0
          spin                       :                   1.0

   ID    Z sym.   atoms
    1    8 O      1
    2    1 H      2, 3

          :  Hamiltonian                  GFN2-xTB          :
 * total energy  :    -4.5423091 Eh     change       -0.5511147E-11 Eh
 * total energy  :    -4.7233524 Eh     change       -0.1810433E+00 Eh
 * total energy  :    -4.7430754 Eh     change       -0.1972300E-01 Eh
 * total energy  :    -4.7607570 Eh     change       -0.1768159E-01 Eh
 * total energy  :    -4.7653898 Eh     change       -0.4632823E-02 Eh
 * total energy  :    -4.7674234 Eh     change       -0.2033602E-02 Eh
 * total energy  :    -4.7710489 Eh     change       -0.3625462E-02 Eh
 * total energy  :    -4.7758065 Eh     change       -0.4757621E-02 Eh
 * total energy  :    -4.7808048 Eh     change       -0.4998301E-02 Eh
 * total energy  :    -4.7814863 Eh     change       -0.6815149E-03 Eh
 * total energy  :    -4.7814972 Eh     change       -0.1087276E-04 Eh
 * total energy  :    -4.7815002 Eh     change       -0.3011346E-05 Eh
   *** GEOMETRY OPTIMIZATION CONVERGED AFTER 12 ITERATIONS ***

 final structure:
================
3
 xtb: 6.2.2 (9d81278992624c895f80dd42a50cac0aa55982e2)
O         0.00025394743951   -0.00031812202120    0.00000000000000
H        -1.32601682768679   -0.00402184102039    0.00000000000000
H         1.32576288024727    0.00433896304160    0.00000000000000

          :  Hamiltonian                  GFN2-xTB          :
         :: gradient norm              0.000194240342 Eh/a0 ::
         :: HOMO-LUMO gap              5.410659039651 eV    ::
         :: SCC energy                -4.782367769485 Eh    ::
         :: -> dispersion             -0.000287044950 Eh    ::
         :: repulsion energy           0.000867580262 Eh    ::

    * Orbital Energies and Occupations

         #    Occupation            Energy/Eh            Energy/eV
      -------------------------------------------------------------
         1        2.0000           -0.6873067             -18.7026
         2        2.0000           -0.5850601             -15.9203
         3        1.9436           -0.4971451             -13.5280
         4        1.0564           -0.4917904             -13.3823
         5        1.0000           -0.3126928              -8.5088 (HOMO)
         6                         -0.1138547              -3.0981 (LUMO)
      -------------------------------------------------------------
                  HL-Gap            0.1988381 Eh            5.4107 eV

     #   Z        covCN         q      C6AA      Î±(0)
     1   8 O      0.502    -0.283    19.631     5.920
     2   1 H      0.250     0.141     3.488     3.400
     3   1 H      0.252     0.142     3.475     3.393

Wiberg/Mayer (AO) data.
largest (>0.10) Wiberg bond orders for each atom
          total WBO             WBO to atom ...

molecular dipole:
                 x           y           z       tot (Debye)
 q only:        0.001       0.000      -0.000
   full:        0.002       0.000      -0.000       0.004

   temp. (K)  partition function   enthalpy   heat capacity  entropy
                                   cal/mol     cal/K/mol   cal/K/mol   J/K/mol
  10.00  VIB   1.00                    0.000      0.000     -0.000
         ROT  0.731                   19.873      1.987      1.363
         INT  0.731                   19.873      1.987      1.363
         TR   0.454E+24               49.681      4.968     17.735
         TOT                          69.5541     6.9554    19.0980    79.9060

       T/K    H(0)-H(T)+PV         H(T)/Eh          T*S/Eh         G(T)/Eh
   ------------------------------------------------------------------------
    298.15    0.348504E-02    0.118234E-01    0.205234E-01   -0.869996E-02
    120.00    0.133157E-02    0.966995E-02    0.695786E-02    0.271209E-02
    100.00    0.110873E-02    0.944711E-02    0.559516E-02    0.385195E-02
     80.00    0.886764E-03    0.922514E-02    0.427808E-02    0.494706E-02
     60.00    0.665050E-03    0.900342E-02    0.301728E-02    0.598615E-02
     40.00    0.443366E-03    0.878174E-02    0.183181E-02    0.694993E-02
     20.00    0.221683E-03    0.856006E-02    0.762298E-03    0.779776E-02
     10.00    0.110842E-03    0.844921E-02    0.304346E-03    0.814487E-02 (used)
   ------------------------------------------------------------------------

         :::::::::::::::::::::::::::::::::::::::::::::::::::::
         ::                  THERMODYNAMIC                  ::
         :::::::::::::::::::::::::::::::::::::::::::::::::::::
         :: total free energy          -4.773355324828 Eh   ::
         ::.................................................::
         :: total energy               -4.781500193752 Eh   ::
         :: zero point energy           0.008338373348 Eh   ::
         :: G(RRHO) w/o ZPVE           -0.000193504424 Eh   ::
         :: G(RRHO) contrib.            0.008144868924 Eh   ::
         :::::::::::::::::::::::::::::::::::::::::::::::::::::

           -------------------------------------------------
          | TOTAL ENERGY               -4.781500193752 Eh   |
          | TOTAL ENTHALPY             -4.773050978890 Eh   |
          | TOTAL FREE ENERGY          -4.773355324828 Eh   |
          | GRADIENT NORM               0.000194250184 Eh/Î± |
          | HOMO-LUMO GAP               5.410659012764 eV   |
           -------------------------------------------------

 * finished run on 2020/05/12 at 11:44:27.551
