   * xtb version 6.2.2 (9d81278992624c895f80dd42a50cac0aa55982e2) compiled by '@Darwin' on 04/03/2020
          program call               : xtb --input C5_3_S_0.input C5_3_S_0.xyz --ohess --molden --namespace C5_3_S_0 output.out
          number of atoms            :                     5
          number of electrons        :                    20
          charge                     :                     0
          spin                       :                   0.0

   ID    Z sym.   atoms
    1    6 C      1-5

          :  Hamiltonian                  GFN2-xTB          :
 * total energy  :    -9.9952219 Eh     change       -0.2255470E-08 Eh
 * total energy  :   -10.0366236 Eh     change       -0.4140169E-01 Eh
 * total energy  :    -9.9694229 Eh     change        0.6720069E-01 Eh
 * total energy  :   -10.0843898 Eh     change       -0.1149669E+00 Eh
 * total energy  :   -10.0983283 Eh     change       -0.1393851E-01 Eh
 * total energy  :   -10.1043670 Eh     change       -0.6038640E-02 Eh
 * total energy  :   -10.1143142 Eh     change       -0.9947230E-02 Eh
 * total energy  :   -10.1458983 Eh     change       -0.3158406E-01 Eh
 * total energy  :   -10.2057510 Eh     change       -0.5985277E-01 Eh
 * total energy  :   -10.2174271 Eh     change       -0.1167606E-01 Eh
 * total energy  :   -10.2395295 Eh     change       -0.9824557E-02 Eh
 * total energy  :   -10.2439615 Eh     change       -0.4431953E-02 Eh
 * total energy  :   -10.2454668 Eh     change       -0.1505288E-02 Eh
 * total energy  :   -10.2462469 Eh     change       -0.7800918E-03 Eh
 * total energy  :   -10.2466033 Eh     change       -0.3564438E-03 Eh
 * total energy  :   -10.2466078 Eh     change       -0.4473384E-05 Eh
 * total energy  :   -10.2466112 Eh     change       -0.3445700E-05 Eh
 * total energy  :   -10.2466146 Eh     change       -0.3317083E-05 Eh
 * total energy  :   -10.2466162 Eh     change       -0.1602482E-05 Eh
   *** GEOMETRY OPTIMIZATION CONVERGED AFTER 20 ITERATIONS ***

 final structure:
================
5
 xtb: 6.2.2 (9d81278992624c895f80dd42a50cac0aa55982e2)
C        -0.43028285391384   -1.25504677914093    0.19284264556507
C        -0.81002212111658    0.04565832772576   -0.00648731759790
C         0.73215059555928   -0.49692722446640    0.53006504822515
C        -0.28354847203952    1.29526630057815   -0.19828076034499
C         0.79170385151066    0.41105037530341   -0.51813961584734

          :  Hamiltonian                  GFN2-xTB          :
         :: gradient norm              0.000109583604 Eh/a0 ::
         :: HOMO-LUMO gap              1.506130029912 eV    ::
         :: SCC energy               -10.417460705929 Eh    ::
         :: -> dispersion             -0.002777121753 Eh    ::
         :: repulsion energy           0.170844526837 Eh    ::

    * Orbital Energies and Occupations

         #    Occupation            Energy/Eh            Energy/eV
      -------------------------------------------------------------
         1        2.0000           -0.7519894             -20.4627
         2        2.0000           -0.6842736             -18.6200
         3        2.0000           -0.6435643             -17.5123
         4        2.0000           -0.5825420             -15.8518
         5        2.0000           -0.5621322             -15.2964
         6        2.0000           -0.5531638             -15.0524
         7        2.0000           -0.5012250             -13.6390
         8        2.0000           -0.4636899             -12.6176
         9        2.0000           -0.4517864             -12.2937
        10        2.0000           -0.4330004             -11.7825 (HOMO)
        11                         -0.3776512             -10.2764 (LUMO)
        12                         -0.3207217              -8.7273
        13                         -0.3122311              -8.4962
        14                         -0.2455582              -6.6820
        15                         -0.2228794              -6.0649
        16                          0.0881015               2.3974
        17                          0.1517544               4.1294
        18                          0.3109687               8.4619
        19                          0.3187125               8.6726
        20                          0.6097480              16.5921
      -------------------------------------------------------------
                  HL-Gap            0.0553492 Eh            1.5061 eV

     #   Z        covCN         q      C6AA      Î±(0)
     1   6 C      2.121    -0.071    32.733     9.246
     2   6 C      3.787     0.111    18.784     6.173
     3   6 C      3.033     0.016    27.628     8.621
     4   6 C      2.121    -0.071    32.733     9.246
     5   6 C      3.033     0.016    27.630     8.622
Molecule has the following symmetry elements: (C2)
It seems to be the C2 point group

Wiberg/Mayer (AO) data.
largest (>0.10) Wiberg bond orders for each atom
          total WBO             WBO to atom ...

molecular dipole:
                 x           y           z       tot (Debye)
 q only:       -0.028       0.002      -0.000
   full:       -0.231       0.013      -0.002       0.588

 projected vibrational frequencies (cm-1)
eigval :       -0.00    -0.00    -0.00    -0.00    -0.00    -0.00
eigval :       49.09   501.37   538.38   660.12   883.63   930.68
eigval :     1117.24  1313.01  1520.95

   temp. (K)  partition function   enthalpy   heat capacity  entropy
                                   cal/mol     cal/K/mol   cal/K/mol   J/K/mol
  10.00  VIB   1.00                    0.120      0.085      0.100
         ROT   77.4                   29.809      2.981     11.624
         INT   77.5                   29.929      3.066     11.725
         TR   0.277E+25               49.681      4.968     21.322
         TOT                          79.6106     8.0340    33.0468   138.2676

       T/K    H(0)-H(T)+PV         H(T)/Eh          T*S/Eh         G(T)/Eh
   ------------------------------------------------------------------------
    298.15    0.530763E-02    0.224268E-01    0.313844E-01   -0.895755E-02
    120.00    0.180995E-02    0.189292E-01    0.106345E-01    0.829468E-02
    100.00    0.148765E-02    0.186069E-01    0.858237E-02    0.100245E-01
     80.00    0.117161E-02    0.182908E-01    0.659712E-02    0.116937E-01
     60.00    0.859697E-03    0.179789E-01    0.469058E-02    0.132883E-01
     40.00    0.552858E-03    0.176721E-01    0.288755E-02    0.147845E-01
     20.00    0.260093E-03    0.173793E-01    0.124415E-02    0.161352E-01
     10.00    0.126868E-03    0.172461E-01    0.526634E-03    0.167194E-01 (used)
   ------------------------------------------------------------------------

         :::::::::::::::::::::::::::::::::::::::::::::::::::::
         ::                  THERMODYNAMIC                  ::
         :::::::::::::::::::::::::::::::::::::::::::::::::::::
         :: total free energy         -10.229896706106 Eh   ::
         ::.................................................::
         :: total energy              -10.246616153755 Eh   ::
         :: zero point energy           0.017119213606 Eh   ::
         :: G(RRHO) w/o ZPVE           -0.000399765957 Eh   ::
         :: G(RRHO) contrib.            0.016719447648 Eh   ::
         :::::::::::::::::::::::::::::::::::::::::::::::::::::

           -------------------------------------------------
          | TOTAL ENERGY              -10.246616153755 Eh   |
          | TOTAL ENTHALPY            -10.229370072544 Eh   |
          | TOTAL FREE ENERGY         -10.229896706106 Eh   |
          | GRADIENT NORM               0.000108864063 Eh/Î± |
          | HOMO-LUMO GAP               1.506129023827 eV   |
           -------------------------------------------------

 * finished run on 2020/05/12 at 11:44:32.340
