   * xtb version 6.2.2 (9d81278992624c895f80dd42a50cac0aa55982e2) compiled by '@Darwin' on 04/03/2020
          program call               : xtb --input C5_6_S_2.input C5_6_S_2.xyz --ohess --molden --namespace C5_6_S_2 output.out
          number of atoms            :                     5
          number of electrons        :                    20
          charge                     :                     0
          spin                       :                   1.0

   ID    Z sym.   atoms
    1    6 C      1-5

          :  Hamiltonian                  GFN2-xTB          :
 * total energy  :   -10.0653437 Eh     change       -0.9878658E-09 Eh
 * total energy  :   -10.1633126 Eh     change       -0.9796891E-01 Eh
 * total energy  :   -10.1951655 Eh     change       -0.3185287E-01 Eh
 * total energy  :   -10.2305139 Eh     change       -0.3534839E-01 Eh
 * total energy  :   -10.2363045 Eh     change       -0.5790576E-02 Eh
 * total energy  :   -10.2405603 Eh     change       -0.4255785E-02 Eh
 * total energy  :   -10.2407256 Eh     change       -0.1653056E-03 Eh
 * total energy  :   -10.2423625 Eh     change       -0.1636926E-02 Eh
 * total energy  :   -10.2423245 Eh     change        0.3797436E-04 Eh
 * total energy  :   -10.2427350 Eh     change       -0.4105224E-03 Eh
 * total energy  :   -10.2428338 Eh     change       -0.9875238E-04 Eh
 * total energy  :   -10.2428989 Eh     change       -0.6512097E-04 Eh
 * total energy  :   -10.2429303 Eh     change       -0.3143781E-04 Eh
 * total energy  :   -10.2429429 Eh     change       -0.1254472E-04 Eh
 * total energy  :   -10.2429645 Eh     change       -0.2165471E-04 Eh
 * total energy  :   -10.2430033 Eh     change       -0.3874483E-04 Eh
 * total energy  :   -10.2430188 Eh     change       -0.1550091E-04 Eh
 * total energy  :   -10.2430168 Eh     change        0.1966465E-05 Eh
 * total energy  :   -10.2430216 Eh     change       -0.4821339E-05 Eh
   *** GEOMETRY OPTIMIZATION CONVERGED AFTER 19 ITERATIONS ***

 final structure:
================
5
 xtb: 6.2.2 (9d81278992624c895f80dd42a50cac0aa55982e2)
C        -1.46716522625808   -0.82615972376380    0.04267171952831
C        -0.25934609254296   -0.03343532511396    0.04035608348422
C         1.02507681438034    0.13258579923102   -0.15782753344138
C        -1.56906490165571    0.44364055061641    0.42504366050334
C         2.27049940607641    0.28336869903034   -0.35024493007449

          :  Hamiltonian                  GFN2-xTB          :
         :: gradient norm              0.000788109757 Eh/a0 ::
         :: HOMO-LUMO gap              1.852609203461 eV    ::
         :: SCC energy               -10.467866021683 Eh    ::
         :: -> dispersion             -0.002863105863 Eh    ::
         :: repulsion energy           0.224844506485 Eh    ::

    * Orbital Energies and Occupations

         #    Occupation            Energy/Eh            Energy/eV
      -------------------------------------------------------------
         1        2.0000           -0.7307479             -19.8847
         2        2.0000           -0.6729264             -18.3113
         3        2.0000           -0.6334260             -17.2364
         4        2.0000           -0.5888743             -16.0241
         5        2.0000           -0.5531169             -15.0511
         6        2.0000           -0.5490531             -14.9405
         7        2.0000           -0.4821948             -13.1212
         8        2.0000           -0.4642704             -12.6334
         9        1.9638           -0.4339676             -11.8089
        10        1.0362           -0.4277341             -11.6392
        11        1.0000           -0.4112605             -11.1910 (HOMO)
        12                         -0.3431783              -9.3384 (LUMO)
        13                         -0.2890656              -7.8659
        14                         -0.2294056              -6.2424
        15                         -0.1535510              -4.1783
        16                         -0.0039531              -0.1076
        17                          0.0501747               1.3653
        18                          0.4694130              12.7734
        19                          0.4815606              13.1039
        20                          1.1304043              30.7599
      -------------------------------------------------------------
                  HL-Gap            0.0680822 Eh            1.8526 eV

     #   Z        covCN         q      C6AA      Î±(0)
     1   6 C      1.960    -0.012    31.378     9.046
     2   6 C      2.940     0.132    25.118     8.220
     3   6 C      1.962     0.022    30.493     8.918
     4   6 C      1.960    -0.012    31.383     9.047
     5   6 C      0.982    -0.131    40.159    10.644

Wiberg/Mayer (AO) data.
largest (>0.10) Wiberg bond orders for each atom
          total WBO             WBO to atom ...

molecular dipole:
                 x           y           z       tot (Debye)
 q only:       -0.517      -0.065       0.080
   full:       -0.817      -0.101       0.127       2.116

 projected vibrational frequencies (cm-1)
eigval :       -0.00    -0.00    -0.00     0.00     0.00     0.00
eigval :       66.13   165.31   356.61   490.18   710.28   803.45
eigval :     1272.68  1666.26  1899.13

   temp. (K)  partition function   enthalpy   heat capacity  entropy
                                   cal/mol     cal/K/mol   cal/K/mol   J/K/mol
  10.00  VIB   1.00                    0.014      0.013     -0.035
         ROT   108.                   29.809      2.981     12.284
         INT   108.                   29.823      2.994     12.248
         TR   0.277E+25               49.681      4.968     21.322
         TOT                          79.5044     7.9623    33.5701   140.4575

       T/K    H(0)-H(T)+PV         H(T)/Eh          T*S/Eh         G(T)/Eh
   ------------------------------------------------------------------------
    298.15    0.598294E-02    0.229098E-01    0.329968E-01   -0.100870E-01
    120.00    0.191964E-02    0.188465E-01    0.108882E-01    0.795828E-02
    100.00    0.154504E-02    0.184719E-01    0.873868E-02    0.973323E-02
     80.00    0.118890E-02    0.181158E-01    0.667918E-02    0.114366E-01
     60.00    0.852569E-03    0.177794E-01    0.472434E-02    0.130551E-01
     40.00    0.539464E-03    0.174663E-01    0.289923E-02    0.145671E-01
     20.00    0.255968E-03    0.171828E-01    0.125345E-02    0.159294E-01
     10.00    0.126698E-03    0.170536E-01    0.534974E-03    0.165186E-01 (used)
   ------------------------------------------------------------------------

         :::::::::::::::::::::::::::::::::::::::::::::::::::::
         ::                  THERMODYNAMIC                  ::
         :::::::::::::::::::::::::::::::::::::::::::::::::::::
         :: total free energy         -10.226503053557 Eh   ::
         ::.................................................::
         :: total energy              -10.243021641107 Eh   ::
         :: zero point energy           0.016926863631 Eh   ::
         :: G(RRHO) w/o ZPVE           -0.000408276081 Eh   ::
         :: G(RRHO) contrib.            0.016518587550 Eh   ::
         :::::::::::::::::::::::::::::::::::::::::::::::::::::

           -------------------------------------------------
          | TOTAL ENERGY              -10.243021641107 Eh   |
          | TOTAL ENTHALPY            -10.225968079223 Eh   |
          | TOTAL FREE ENERGY         -10.226503053557 Eh   |
          | GRADIENT NORM               0.000785708935 Eh/Î± |
          | HOMO-LUMO GAP               1.852611753108 eV   |
           -------------------------------------------------

 * finished run on 2020/05/12 at 11:44:34.150
