   * xtb version 6.2.2 (9d81278992624c895f80dd42a50cac0aa55982e2) compiled by '@Darwin' on 04/03/2020
          program call               : xtb --input H1C3N1_14_S_0.input H1C3N1_14_S_0.xyz --ohess --molden --namespace H1C3N1_14_S_0 output.out
          number of atoms            :                     5
          number of electrons        :                    18
          charge                     :                     0
          spin                       :                   0.0

   ID    Z sym.   atoms
    1    6 C      1-3
    2    7 N      4
    3    1 H      5

          :  Hamiltonian                  GFN2-xTB          :
 * total energy  :    -9.4337464 Eh     change        0.1113715E-08 Eh
 * total energy  :    -9.4896634 Eh     change       -0.5591704E-01 Eh
 * total energy  :    -9.4882814 Eh     change        0.1381988E-02 Eh
 * total energy  :    -9.5127201 Eh     change       -0.2443867E-01 Eh
 * total energy  :    -9.5188133 Eh     change       -0.6093170E-02 Eh
 * total energy  :    -9.5254366 Eh     change       -0.6623354E-02 Eh
 * total energy  :    -9.5417464 Eh     change       -0.1630971E-01 Eh
 * total energy  :    -9.5421521 Eh     change       -0.4057938E-03 Eh
 * total energy  :    -9.5552609 Eh     change       -0.1310880E-01 Eh
 * total energy  :    -9.5629116 Eh     change       -0.7650651E-02 Eh
 * total energy  :    -9.5704939 Eh     change       -0.7582298E-02 Eh
 * total energy  :    -9.5724507 Eh     change       -0.1956813E-02 Eh
 * total energy  :    -9.5745288 Eh     change       -0.2078070E-02 Eh
 * total energy  :    -9.5780520 Eh     change       -0.3523246E-02 Eh
 * total energy  :    -9.5783605 Eh     change       -0.3085053E-03 Eh
 * total energy  :    -9.5784415 Eh     change       -0.8093111E-04 Eh
 * total energy  :    -9.5784546 Eh     change       -0.1315326E-04 Eh
 * total energy  :    -9.5784591 Eh     change       -0.4456182E-05 Eh
 * total energy  :    -9.5784613 Eh     change       -0.2259480E-05 Eh
   *** GEOMETRY OPTIMIZATION CONVERGED AFTER 19 ITERATIONS ***

 final structure:
================
5
 xtb: 6.2.2 (9d81278992624c895f80dd42a50cac0aa55982e2)
C         0.70493790694208   -0.89375252374059   -0.13643966585837
C         0.27738229285767    0.42618639832807    0.19759940961157
C        -0.94742326233585   -0.16879950414001    0.62234770193281
N        -0.58252760737123   -0.76472955357078   -0.53912055056062
H         0.54763066990733    1.40109418312331   -0.14438689512539

          :  Hamiltonian                  GFN2-xTB          :
         :: gradient norm              0.000706360539 Eh/a0 ::
         :: HOMO-LUMO gap              3.336535043320 eV    ::
         :: SCC energy                -9.700132844566 Eh    ::
         :: -> dispersion             -0.001960609526 Eh    ::
         :: repulsion energy           0.121671485642 Eh    ::

    * Orbital Energies and Occupations

         #    Occupation            Energy/Eh            Energy/eV
      -------------------------------------------------------------
         1        2.0000           -0.7536415             -20.5076
         2        2.0000           -0.6491579             -17.6645
         3        2.0000           -0.6336990             -17.2438
         4        2.0000           -0.5888173             -16.0225
         5        2.0000           -0.5466746             -14.8758
         6        2.0000           -0.5261108             -14.3162
         7        2.0000           -0.4666178             -12.6973
         8        2.0000           -0.4598625             -12.5135
         9        2.0000           -0.4294640             -11.6863 (HOMO)
        10                         -0.3068486              -8.3498 (LUMO)
        11                         -0.3063101              -8.3351
        12                         -0.2555217              -6.9531
        13                          0.0382526               1.0409
        14                          0.0460915               1.2542
        15                          0.1880991               5.1184
        16                          0.2434163               6.6237
        17                          0.5157326              14.0338
      -------------------------------------------------------------
                  HL-Gap            0.1226154 Eh            3.3365 eV

     #   Z        covCN         q      C6AA      Î±(0)
     1   6 C      2.468    -0.069    30.014     8.943
     2   6 C      3.752     0.093    19.100     6.232
     3   6 C      2.468    -0.069    30.014     8.943
     4   7 N      2.686    -0.035    21.928     6.955
     5   1 H      0.927     0.080     1.979     2.200

Wiberg/Mayer (AO) data.
largest (>0.10) Wiberg bond orders for each atom
          total WBO             WBO to atom ...

molecular dipole:
                 x           y           z       tot (Debye)
 q only:        0.202       0.476      -0.014
   full:        0.253       0.898      -0.308       2.497

 projected vibrational frequencies (cm-1)
eigval :       -0.00    -0.00    -0.00     0.00     0.00     0.00
eigval :      606.02   728.68   733.17   823.78   917.61  1188.75
eigval :     1331.06  1471.81  3187.06

   temp. (K)  partition function   enthalpy   heat capacity  entropy
                                   cal/mol     cal/K/mol   cal/K/mol   J/K/mol
  10.00  VIB   1.00                    0.000      0.000     -0.000
         ROT   80.8                   29.809      2.981     11.708
         INT   80.8                   29.809      2.981     11.708
         TR   0.217E+25               49.681      4.968     20.838
         TOT                          79.4904     7.9490    32.5458   136.1715

       T/K    H(0)-H(T)+PV         H(T)/Eh          T*S/Eh         G(T)/Eh
   ------------------------------------------------------------------------
    298.15    0.429044E-02    0.293228E-01    0.289389E-01    0.383981E-03
    120.00    0.152335E-02    0.265558E-01    0.100037E-01    0.165521E-01
    100.00    0.126743E-02    0.262998E-01    0.810321E-02    0.181966E-01
     80.00    0.101347E-02    0.260459E-01    0.625598E-02    0.197899E-01
     60.00    0.760058E-03    0.257925E-01    0.447334E-02    0.213191E-01
     40.00    0.506704E-03    0.255391E-01    0.277684E-02    0.227623E-01
     20.00    0.253352E-03    0.252858E-01    0.121286E-02    0.240729E-01
     10.00    0.126676E-03    0.251591E-01    0.518650E-03    0.246404E-01 (used)
   ------------------------------------------------------------------------

         :::::::::::::::::::::::::::::::::::::::::::::::::::::
         ::                  THERMODYNAMIC                  ::
         :::::::::::::::::::::::::::::::::::::::::::::::::::::
         :: total free energy          -9.553820901465 Eh   ::
         ::.................................................::
         :: total energy               -9.578461330951 Eh   ::
         :: zero point energy           0.025032403166 Eh   ::
         :: G(RRHO) w/o ZPVE           -0.000391973680 Eh   ::
         :: G(RRHO) contrib.            0.024640429486 Eh   ::
         :::::::::::::::::::::::::::::::::::::::::::::::::::::

           -------------------------------------------------
          | TOTAL ENERGY               -9.578461330951 Eh   |
          | TOTAL ENTHALPY             -9.553302251770 Eh   |
          | TOTAL FREE ENERGY          -9.553820901465 Eh   |
          | GRADIENT NORM               0.000706315002 Eh/Î± |
          | HOMO-LUMO GAP               3.336535956342 eV   |
           -------------------------------------------------

 * finished run on 2020/05/12 at 11:44:55.809
