   * xtb version 6.2.2 (9d81278992624c895f80dd42a50cac0aa55982e2) compiled by '@Darwin' on 04/03/2020
          program call               : xtb --input C4_3_S_0.input C4_3_S_0.xyz --ohess --molden --namespace C4_3_S_0 output.out
          number of atoms            :                     4
          number of electrons        :                    16
          charge                     :                     0
          spin                       :                   0.0

   ID    Z sym.   atoms
    1    6 C      1-4

          :  Hamiltonian                  GFN2-xTB          :
 * total energy  :    -8.0578533 Eh     change       -0.3707612E-10 Eh
 * total energy  :    -8.0811587 Eh     change       -0.2330538E-01 Eh
 * total energy  :    -8.0768682 Eh     change        0.4290522E-02 Eh
 * total energy  :    -8.1182547 Eh     change       -0.4138654E-01 Eh
 * total energy  :    -8.0683392 Eh     change        0.4991549E-01 Eh
 * total energy  :    -8.1230431 Eh     change       -0.5470386E-01 Eh
 * total energy  :    -8.1261468 Eh     change       -0.3103707E-02 Eh
 * total energy  :    -8.1313418 Eh     change       -0.5195035E-02 Eh
 * total energy  :    -8.1342617 Eh     change       -0.2919891E-02 Eh
 * total energy  :    -8.1368498 Eh     change       -0.2588033E-02 Eh
 * total energy  :    -8.1370641 Eh     change       -0.2143253E-03 Eh
 * total energy  :    -8.1370764 Eh     change       -0.1234414E-04 Eh
 * total energy  :    -8.1370771 Eh     change       -0.6799298E-06 Eh
   *** GEOMETRY OPTIMIZATION CONVERGED AFTER 13 ITERATIONS ***

 final structure:
================
4
 xtb: 6.2.2 (9d81278992624c895f80dd42a50cac0aa55982e2)
C        -0.79994991641927    0.56520954824050    0.13494741066054
C        -0.43309753750331   -0.88056597902592   -0.13528334618991
C         0.80039637149143   -0.56723201160770    0.12330845098684
C         0.43265108243115    0.88258844239311   -0.12297351545746

          :  Hamiltonian                  GFN2-xTB          :
         :: gradient norm              0.000209110716 Eh/a0 ::
         :: HOMO-LUMO gap              0.862107403625 eV    ::
         :: SCC energy                -8.288341185751 Eh    ::
         :: -> dispersion             -0.001712439358 Eh    ::
         :: repulsion energy           0.151264072803 Eh    ::

    * Orbital Energies and Occupations

         #    Occupation            Energy/Eh            Energy/eV
      -------------------------------------------------------------
         1        2.0000           -0.7323216             -19.9275
         2        2.0000           -0.6432097             -17.5026
         3        2.0000           -0.6071283             -16.5208
         4        2.0000           -0.5443261             -14.8119
         5        2.0000           -0.5414389             -14.7333
         6        2.0000           -0.4836632             -13.1611
         7        2.0000           -0.4542215             -12.3600
         8        2.0000           -0.4221068             -11.4861 (HOMO)
         9        0.0000           -0.3904249             -10.6240 (LUMO)
        10                         -0.3372140              -9.1761
        11                         -0.3193476              -8.6899
Molecule has the following symmetry elements: 3*(C2)
It seems to be the D2 point group
        12                         -0.2054818              -5.5914
        13                         -0.0274876              -0.7480
        14                          0.1220280               3.3205
        15                          0.4413748              12.0104
        16                          0.7091089              19.2958
      -------------------------------------------------------------
                  HL-Gap            0.0316819 Eh            0.8621 eV

     #   Z        covCN         q      C6AA      Î±(0)
     1   6 C      2.528     0.000    28.122     8.665
     2   6 C      2.521    -0.000    28.147     8.668
     3   6 C      2.528     0.000    28.122     8.665
     4   6 C      2.521    -0.000    28.147     8.668

Wiberg/Mayer (AO) data.
largest (>0.10) Wiberg bond orders for each atom
          total WBO             WBO to atom ...

molecular dipole:
                 x           y           z       tot (Debye)
 q only:        0.000      -0.000       0.000
   full:        0.000      -0.000       0.003       0.007

 projected vibrational frequencies (cm-1)
eigval :       -0.00    -0.00    -0.00     0.00     0.00     0.00
eigval :      291.89   358.76   555.45   989.35  1558.71  1616.74

   temp. (K)  partition function   enthalpy   heat capacity  entropy
                                   cal/mol     cal/K/mol   cal/K/mol   J/K/mol
  10.00  VIB   1.00                    0.000      0.000     -0.002
         ROT   18.9                   29.809      2.981      8.818
         INT   18.9                   29.809      2.981      8.816
         TR   0.198E+25               49.681      4.968     20.657
         TOT                          79.4904     7.9490    29.4729   123.3147

       T/K    H(0)-H(T)+PV         H(T)/Eh          T*S/Eh         G(T)/Eh
   ------------------------------------------------------------------------
    298.15    0.479042E-02    0.170262E-01    0.283616E-01   -0.113354E-01
    120.00    0.158727E-02    0.138231E-01    0.949741E-02    0.432568E-02
    100.00    0.129730E-02    0.135331E-01    0.765045E-02    0.588267E-02
     80.00    0.102313E-02    0.132589E-01    0.587593E-02    0.738301E-02
     60.00    0.761575E-03    0.129974E-01    0.418146E-02    0.881593E-02
     40.00    0.506745E-03    0.127426E-01    0.258111E-02    0.101614E-01
     20.00    0.253352E-03    0.124892E-01    0.111495E-02    0.113742E-01
     10.00    0.126676E-03    0.123625E-01    0.469681E-03    0.118928E-01 (used)
   ------------------------------------------------------------------------

         :::::::::::::::::::::::::::::::::::::::::::::::::::::
         ::                  THERMODYNAMIC                  ::
         :::::::::::::::::::::::::::::::::::::::::::::::::::::
         :: total free energy          -8.125184298669 Eh   ::
         ::.................................................::
         :: total energy               -8.137077107859 Eh   ::
         :: zero point energy           0.012235814101 Eh   ::
         :: G(RRHO) w/o ZPVE           -0.000343004911 Eh   ::
         :: G(RRHO) contrib.            0.011892809190 Eh   ::
         :::::::::::::::::::::::::::::::::::::::::::::::::::::

           -------------------------------------------------
          | TOTAL ENERGY               -8.137077107859 Eh   |
          | TOTAL ENTHALPY             -8.124714617742 Eh   |
          | TOTAL FREE ENERGY          -8.125184298669 Eh   |
          | GRADIENT NORM               0.000208896451 Eh/Î± |
          | HOMO-LUMO GAP               0.862107418069 eV   |
           -------------------------------------------------

 * finished run on 2020/05/12 at 14:38:40.316
