   * xtb version 6.2.2 (9d81278992624c895f80dd42a50cac0aa55982e2) compiled by '@Darwin' on 04/03/2020
          program call               : xtb --input H2C1N1_2_S_3.input H2C1N1_2_S_3.xyz --ohess --molden --namespace H2C1N1_2_S_3 output.out
          number of atoms            :                     4
          number of electrons        :                    11
          charge                     :                     0
          spin                       :                   1.5

   ID    Z sym.   atoms
    1    6 C      1
    2    7 N      2
    3    1 H      3, 4

          :  Hamiltonian                  GFN2-xTB          :
 * total energy  :    -5.7364729 Eh     change        0.2258194E-10 Eh
 * total energy  :    -5.7400302 Eh     change       -0.3557249E-02 Eh
 * total energy  :    -5.7409330 Eh     change       -0.9028275E-03 Eh
 * total energy  :    -5.7409690 Eh     change       -0.3602219E-04 Eh
 * total energy  :    -5.7409697 Eh     change       -0.6951435E-06 Eh
   *** GEOMETRY OPTIMIZATION CONVERGED AFTER 5 ITERATIONS ***

 final structure:
================
4
 xtb: 6.2.2 (9d81278992624c895f80dd42a50cac0aa55982e2)
C         1.24414118295486   -0.01811414781576   -0.05267560576629
N        -0.09475921210206   -0.00235161861051    0.25912063419559
H        -0.58732688882134   -0.82223614253116   -0.11539788932684
H        -0.56205508203146    0.84270190895744   -0.09104613910245

          :  Hamiltonian                  GFN2-xTB          :
         :: gradient norm              0.000300301254 Eh/a0 ::
         :: HOMO-LUMO gap              8.281965944600 eV    ::
         :: SCC energy                -5.793431308784 Eh    ::
         :: -> dispersion             -0.000727318660 Eh    ::
         :: repulsion energy           0.052461588408 Eh    ::

    * Orbital Energies and Occupations

         #    Occupation            Energy/Eh            Energy/eV
      -------------------------------------------------------------
         1        2.0000           -0.6320564             -17.1991
         2        2.0000           -0.5599503             -15.2370
         3        2.0000           -0.5424095             -14.7597
         4        2.0000           -0.4587473             -12.4831
         5        1.0000           -0.3909956             -10.6395
         6        1.0000           -0.2854664              -7.7679
         7        1.0000           -0.2575828              -7.0092 (HOMO)
         8                          0.0467738               1.2728 (LUMO)
         9                          0.1750463               4.7633
        10                          0.2568244               6.9885
      -------------------------------------------------------------
                  HL-Gap            0.3043566 Eh            8.2820 eV

     #   Z        covCN         q      C6AA      Î±(0)
     1   6 C      0.910    -0.141    39.955    10.578
     2   7 N      2.628    -0.207    25.510     7.501
     3   1 H      0.859     0.174     1.250     1.751
     4   1 H      0.859     0.174     1.250     1.751

Wiberg/Mayer (AO) data.
Molecule has the following symmetry elements: (sigma)
It seems to be the Cs point group

molecular dipole:
                 x           y           z       tot (Debye)
 q only:       -0.672       0.012      -0.155
   full:       -0.693       0.016      -0.373       1.999

 projected vibrational frequencies (cm-1)
eigval :       -0.00    -0.00    -0.00     0.00     0.00     0.00
eigval :      918.82  1105.52  1283.73  1451.14  3108.66  3129.93

   temp. (K)  partition function   enthalpy   heat capacity  entropy
                                   cal/mol     cal/K/mol   cal/K/mol   J/K/mol
  10.00  VIB   1.00                    0.000      0.000     -0.000
         ROT   9.34                   29.809      2.981      7.421
         INT   9.34                   29.809      2.981      7.421
         TR   0.882E+24               49.681      4.968     19.052
         TOT                          79.4904     7.9490    26.4728   110.7623

       T/K    H(0)-H(T)+PV         H(T)/Eh          T*S/Eh         G(T)/Eh
   ------------------------------------------------------------------------
    298.15    0.386951E-02    0.289243E-01    0.255079E-01    0.341642E-02
    120.00    0.152019E-02    0.265750E-01    0.883873E-02    0.177363E-01
    100.00    0.126677E-02    0.263216E-01    0.713466E-02    0.191869E-01
     80.00    0.101341E-02    0.260682E-01    0.548165E-02    0.205866E-01
     60.00    0.760056E-03    0.258149E-01    0.389265E-02    0.219222E-01
     40.00    0.506704E-03    0.255615E-01    0.238971E-02    0.231718E-01
     20.00    0.253352E-03    0.253082E-01    0.101930E-02    0.242889E-01
     10.00    0.126676E-03    0.251815E-01    0.421871E-03    0.247596E-01 (used)
   ------------------------------------------------------------------------

         :::::::::::::::::::::::::::::::::::::::::::::::::::::
         ::                  THERMODYNAMIC                  ::
         :::::::::::::::::::::::::::::::::::::::::::::::::::::
         :: total free energy          -5.716210072534 Eh   ::
         ::.................................................::
         :: total energy               -5.740969716555 Eh   ::
         :: zero point energy           0.025054839335 Eh   ::
         :: G(RRHO) w/o ZPVE           -0.000295195313 Eh   ::
         :: G(RRHO) contrib.            0.024759644022 Eh   ::
         :::::::::::::::::::::::::::::::::::::::::::::::::::::

           -------------------------------------------------
          | TOTAL ENERGY               -5.740969716555 Eh   |
          | TOTAL ENTHALPY             -5.715788201205 Eh   |
          | TOTAL FREE ENERGY          -5.716210072534 Eh   |
          | GRADIENT NORM               0.000300297427 Eh/Î± |
          | HOMO-LUMO GAP               8.281965889433 eV   |
           -------------------------------------------------

 * finished run on 2020/05/12 at 11:43:50.432
