   * xtb version 6.2.2 (9d81278992624c895f80dd42a50cac0aa55982e2) compiled by '@Darwin' on 04/03/2020
          program call               : xtb --input H1C3_1_S_3.input H1C3_1_S_3.xyz --ohess --molden --namespace H1C3_1_S_3 output.out
          number of atoms            :                     4
          number of electrons        :                    13
          charge                     :                     0
          spin                       :                   1.5

   ID    Z sym.   atoms
    1    6 C      1-3
    2    1 H      4

          :  Hamiltonian                  GFN2-xTB          :
 * total energy  :    -6.4346286 Eh     change        0.1445475E-09 Eh
 * total energy  :    -6.5040519 Eh     change       -0.6942331E-01 Eh
 * total energy  :    -6.3961217 Eh     change        0.1079302E+00 Eh
 * total energy  :    -6.5518454 Eh     change       -0.1557236E+00 Eh
 * total energy  :    -6.5657142 Eh     change       -0.1386883E-01 Eh
 * total energy  :    -6.5587122 Eh     change        0.7001931E-02 Eh
 * total energy  :    -6.5742408 Eh     change       -0.1552853E-01 Eh
 * total energy  :    -6.5757534 Eh     change       -0.1512576E-02 Eh
 * total energy  :    -6.5781695 Eh     change       -0.2416104E-02 Eh
 * total energy  :    -6.5802545 Eh     change       -0.2085079E-02 Eh
 * total energy  :    -6.5826196 Eh     change       -0.8137883E-04 Eh
 * total energy  :    -6.5826314 Eh     change       -0.1182481E-04 Eh
 * total energy  :    -6.5826383 Eh     change       -0.6820206E-05 Eh
 * total energy  :    -6.5826460 Eh     change       -0.7711774E-05 Eh
 * total energy  :    -6.5826600 Eh     change       -0.1406452E-04 Eh
 * total energy  :    -6.5826684 Eh     change       -0.8402155E-05 Eh
 * total energy  :    -6.5826476 Eh     change        0.2081887E-04 Eh
 * total energy  :    -6.5826710 Eh     change       -0.2334188E-04 Eh
 * total energy  :    -6.5826717 Eh     change       -0.7035891E-06 Eh
   *** GEOMETRY OPTIMIZATION CONVERGED AFTER 24 ITERATIONS ***

 final structure:
================
4
 xtb: 6.2.2 (9d81278992624c895f80dd42a50cac0aa55982e2)
C         0.57061637926137   -0.00149866019851   -0.00697591576889
C        -0.69123090528591    0.07553220251400    0.06692334440433
C         1.83167714027957    0.05178644754331    0.02295343278354
H        -1.71106361425503   -0.12581998985880   -0.08289986141897

          :  Hamiltonian                  GFN2-xTB          :
         :: gradient norm              0.000405623943 Eh/a0 ::
         :: HOMO-LUMO gap              5.675186045648 eV    ::
         :: SCC energy                -6.754663547149 Eh    ::
         :: -> dispersion             -0.001281776913 Eh    ::
         :: repulsion energy           0.171991920771 Eh    ::

    * Orbital Energies and Occupations

         #    Occupation            Energy/Eh            Energy/eV
      -------------------------------------------------------------
         1        2.0000           -0.6374377             -17.3456
         2        2.0000           -0.5987642             -16.2932
         3        2.0000           -0.5237023             -14.2507
         4        2.0000           -0.4683551             -12.7446
         5        2.0000           -0.4681111             -12.7380
         6        1.0000           -0.4113023             -11.1921
         7        1.0000           -0.3443625              -9.3706
         8        1.0000           -0.3417037              -9.2982 (HOMO)
         9                         -0.1331445              -3.6230 (LUMO)
        10                         -0.1257514              -3.4219
        11                          0.1138859               3.0990
        12                          0.5512571              15.0005
        13                          1.2829982              34.9122
      -------------------------------------------------------------
                  HL-Gap            0.2085592 Eh            5.6752 eV

     #   Z        covCN         q      C6AA      Î±(0)
     1   6 C      1.962     0.036    30.142     8.866
     2   6 C      1.911    -0.081    33.308     9.321
     3   6 C      0.984    -0.060    37.806    10.329
     4   1 H      0.928     0.105     1.744     2.065

Wiberg/Mayer (AO) data.
largest (>0.10) Wiberg bond orders for each atom
          total WBO             WBO to atom ...

molecular dipole:
                 x           y           z       tot (Debye)
 q only:       -0.403      -0.042      -0.030
   full:       -0.390      -0.092      -0.069       1.034

 projected vibrational frequencies (cm-1)
eigval :       -0.00    -0.00    -0.00    -0.00    -0.00     0.00
eigval :      243.15   435.50   441.86  1360.85  1854.23  3347.75

   temp. (K)  partition function   enthalpy   heat capacity  entropy
                                   cal/mol     cal/K/mol   cal/K/mol   J/K/mol
  10.00  VIB   1.00                    0.000      0.000     -0.003
         ROT   6.63                   29.809      2.981      6.740
         INT   6.63                   29.809      2.981      6.737
         TR   0.134E+25               49.681      4.968     19.882
         TOT                          79.4904     7.9490    26.6192   111.3748

       T/K    H(0)-H(T)+PV         H(T)/Eh          T*S/Eh         G(T)/Eh
   ------------------------------------------------------------------------
    298.15    0.483009E-02    0.223340E-01    0.271144E-01   -0.478033E-02
    120.00    0.160448E-02    0.191084E-01    0.897698E-02    0.101314E-01
    100.00    0.130859E-02    0.188125E-01    0.721138E-02    0.116012E-01
     80.00    0.102906E-02    0.185330E-01    0.551990E-02    0.130131E-01
     60.00    0.763427E-03    0.182674E-01    0.391094E-02    0.143564E-01
     40.00    0.506881E-03    0.180108E-01    0.239943E-02    0.156114E-01
     20.00    0.253352E-03    0.177573E-01    0.102401E-02    0.167333E-01
     10.00    0.126676E-03    0.176306E-01    0.424204E-03    0.172064E-01 (used)
   ------------------------------------------------------------------------

         :::::::::::::::::::::::::::::::::::::::::::::::::::::
         ::                  THERMODYNAMIC                  ::
         :::::::::::::::::::::::::::::::::::::::::::::::::::::
         :: total free energy          -6.565465255999 Eh   ::
         ::.................................................::
         :: total energy               -6.582671670178 Eh   ::
         :: zero point energy           0.017503942410 Eh   ::
         :: G(RRHO) w/o ZPVE           -0.000297528231 Eh   ::
         :: G(RRHO) contrib.            0.017206414179 Eh   ::
         :::::::::::::::::::::::::::::::::::::::::::::::::::::

           -------------------------------------------------
          | TOTAL ENERGY               -6.582671670178 Eh   |
          | TOTAL ENTHALPY             -6.565041051753 Eh   |
          | TOTAL FREE ENERGY          -6.565465255999 Eh   |
          | GRADIENT NORM               0.000405617774 Eh/Î± |
          | HOMO-LUMO GAP               5.675184187430 eV   |
           -------------------------------------------------

 * finished run on 2020/05/12 at 11:43:51.570
