   * xtb version 6.2.2 (9d81278992624c895f80dd42a50cac0aa55982e2) compiled by '@Darwin' on 04/03/2020
          program call               : xtb --input C2N1_0_S_1.input C2N1_0_S_1.xyz --ohess --molden --namespace C2N1_0_S_1 output.out
          number of atoms            :                     3
          number of electrons        :                    13
          charge                     :                     0
          spin                       :                   0.5

   ID    Z sym.   atoms
    1    6 C      1, 3
    2    7 N      2

          :  Hamiltonian                  GFN2-xTB          :
 * total energy  :    -6.8139204 Eh     change       -0.8615775E-10 Eh
 * total energy  :    -6.9099134 Eh     change       -0.9599300E-01 Eh
 * total energy  :    -6.9089446 Eh     change        0.9687805E-03 Eh
 * total energy  :    -6.9244082 Eh     change       -0.1546360E-01 Eh
 * total energy  :    -6.9256687 Eh     change       -0.1260416E-02 Eh
 * total energy  :    -6.9269117 Eh     change       -0.1243092E-02 Eh
 * total energy  :    -6.9195799 Eh     change        0.7331883E-02 Eh
 * total energy  :    -6.9288309 Eh     change       -0.9251068E-02 Eh
 * total energy  :    -6.9292957 Eh     change       -0.4647458E-03 Eh
 * total energy  :    -6.9284373 Eh     change        0.8583727E-03 Eh
 * total energy  :    -6.9300248 Eh     change       -0.1587534E-02 Eh
 * total energy  :    -6.9302011 Eh     change       -0.1763068E-03 Eh
 * total energy  :    -6.9303484 Eh     change       -0.1472897E-03 Eh
 * total energy  :    -6.9303928 Eh     change       -0.4439387E-04 Eh
 * total energy  :    -6.9304094 Eh     change       -0.1653693E-04 Eh
 * total energy  :    -6.9304107 Eh     change       -0.1302628E-05 Eh
   *** GEOMETRY OPTIMIZATION CONVERGED AFTER 16 ITERATIONS ***

 final structure:
================
3
 xtb: 6.2.2 (9d81278992624c895f80dd42a50cac0aa55982e2)
C        -0.05300550156408   -0.00093189415729   -0.00000000000000
N        -1.23118017876609    0.00519497764405    0.00000000000000
C         1.28418568033017   -0.00426308348676    0.00000000000000

          :  Hamiltonian                  GFN2-xTB          :
         :: gradient norm              0.000215740312 Eh/a0 ::
         :: HOMO-LUMO gap              0.000001472633 eV    ::
         :: SCC energy                -7.058475091536 Eh    ::
         :: -> dispersion             -0.000921265637 Eh    ::
         :: repulsion energy           0.128064427499 Eh    ::

    * Orbital Energies and Occupations

         #    Occupation            Energy/Eh            Energy/eV
      -------------------------------------------------------------
         1        2.0000           -0.7036172             -19.1464
         2        2.0000           -0.6821500             -18.5622
         3        2.0000           -0.5534032             -15.0589
         4        2.0000           -0.5534031             -15.0589
         5        2.0000           -0.5255197             -14.3001
         6        2.0000           -0.4684015             -12.7459
         7        0.5000           -0.4292270             -11.6799 (HOMO)
         8        0.5000           -0.4292270             -11.6799 (LUMO)
         9                         -0.2148061              -5.8452
        10                         -0.2148051              -5.8451
        11                          0.2103802               5.7247
        12                          1.0517025              28.6183
      -------------------------------------------------------------
                  HL-Gap            0.0000001 Eh            0.0000 eV

     #   Z        covCN         q      C6AA      Î±(0)
     1   6 C      1.891     0.172    26.985     8.390
     2   7 N      0.911    -0.098    23.156     6.959
     3   6 C      0.982    -0.074    38.251    10.388

Wiberg/Mayer (AO) data.
largest (>0.10) Wiberg bond orders for each atom
          total WBO             WBO to atom ...

molecular dipole:
                 x           y           z       tot (Debye)
 q only:        0.030      -0.001      -0.000
   full:        0.009      -0.002      -0.000       0.024

   temp. (K)  partition function   enthalpy   heat capacity  entropy
                                   cal/mol     cal/K/mol   cal/K/mol   J/K/mol
  10.00  VIB   1.00                    0.000      0.000     -0.005
         ROT   16.9                   19.873      1.987      7.602
         INT   16.9                   19.873      1.987      7.597
         TR   0.139E+25               49.681      4.968     19.961
         TOT                          69.5541     6.9554    27.5578   115.3018

       T/K    H(0)-H(T)+PV         H(T)/Eh          T*S/Eh         G(T)/Eh
   ------------------------------------------------------------------------
    298.15    0.431523E-02    0.128242E-01    0.260270E-01   -0.132029E-01
    120.00    0.145783E-02    0.996676E-02    0.874579E-02    0.122097E-02
    100.00    0.117806E-02    0.968699E-02    0.703340E-02    0.265360E-02
     80.00    0.915325E-03    0.942426E-02    0.539255E-02    0.403171E-02
     60.00    0.671668E-03    0.918060E-02    0.383452E-02    0.534609E-02
     40.00    0.443727E-03    0.895266E-02    0.237178E-02    0.658088E-02
     20.00    0.221683E-03    0.873062E-02    0.103201E-02    0.769861E-02
     10.00    0.110842E-03    0.861978E-02    0.439161E-03    0.818062E-02 (used)
   ------------------------------------------------------------------------

         :::::::::::::::::::::::::::::::::::::::::::::::::::::
         ::                  THERMODYNAMIC                  ::
         :::::::::::::::::::::::::::::::::::::::::::::::::::::
         :: total free energy          -6.922230050749 Eh   ::
         ::.................................................::
         :: total energy               -6.930410667839 Eh   ::
         :: zero point energy           0.008508936757 Eh   ::
         :: G(RRHO) w/o ZPVE           -0.000328319667 Eh   ::
         :: G(RRHO) contrib.            0.008180617090 Eh   ::
         :::::::::::::::::::::::::::::::::::::::::::::::::::::

           -------------------------------------------------
          | TOTAL ENERGY               -6.930410667839 Eh   |
          | TOTAL ENTHALPY             -6.921790889568 Eh   |
          | TOTAL FREE ENERGY          -6.922230050749 Eh   |
          | GRADIENT NORM               0.000215493817 Eh/Î± |
          | HOMO-LUMO GAP               0.000001461881 eV   |
           -------------------------------------------------

 * finished run on 2020/05/12 at 11:43:53.717
