   * xtb version 6.2.2 (9d81278992624c895f80dd42a50cac0aa55982e2) compiled by '@Darwin' on 04/03/2020
          program call               : xtb --input C1N1O1_2_S_1.input C1N1O1_2_S_1.xyz --ohess --molden --namespace C1N1O1_2_S_1 output.out
          number of atoms            :                     3
          number of electrons        :                    15
          charge                     :                     0
          spin                       :                   0.5

   ID    Z sym.   atoms
    1    8 O      1
    2    7 N      2
    3    6 C      3

          :  Hamiltonian                  GFN2-xTB          :
 * total energy  :    -8.7658022 Eh     change       -0.1271257E-08 Eh
 * total energy  :    -8.7910601 Eh     change       -0.2525790E-01 Eh
 * total energy  :    -8.8358584 Eh     change       -0.4479829E-01 Eh
 * total energy  :    -8.8642387 Eh     change       -0.2838036E-01 Eh
 * total energy  :    -8.8305427 Eh     change        0.3369600E-01 Eh
 * total energy  :    -8.8772473 Eh     change       -0.4670460E-01 Eh
 * total energy  :    -8.8795188 Eh     change       -0.2271446E-02 Eh
 * total energy  :    -8.8797115 Eh     change       -0.1926956E-03 Eh
 * total energy  :    -8.8799790 Eh     change       -0.2675344E-03 Eh
 * total energy  :    -8.8799900 Eh     change       -0.1098278E-04 Eh
 * total energy  :    -8.8799922 Eh     change       -0.2198273E-05 Eh
   *** GEOMETRY OPTIMIZATION CONVERGED AFTER 11 ITERATIONS ***

 final structure:
================
3
 xtb: 6.2.2 (9d81278992624c895f80dd42a50cac0aa55982e2)
O        -0.00301576279843    0.79140877102420    0.00000000000000
N        -0.66259349775467   -0.41580688151737    0.00000000000000
C         0.66560826055310   -0.37560088950683    0.00000000000000

          :  Hamiltonian                  GFN2-xTB          :
         :: gradient norm              0.000078011779 Eh/a0 ::
         :: HOMO-LUMO gap              2.932879323016 eV    ::
         :: SCC energy                -8.923909387560 Eh    ::
         :: -> dispersion             -0.000754174921 Eh    ::
         :: repulsion energy           0.043917184277 Eh    ::

    * Orbital Energies and Occupations

         #    Occupation            Energy/Eh            Energy/eV
      -------------------------------------------------------------
         1        2.0000           -0.8341946             -22.6996
         2        2.0000           -0.7142089             -19.4346
         3        2.0000           -0.6870491             -18.6956
         4        2.0000           -0.6516827             -17.7332
         5        2.0000           -0.5790664             -15.7572
         6        2.0000           -0.5197045             -14.1419
         7        2.0000           -0.4724840             -12.8569
         8        1.0000           -0.4475093             -12.1773 (HOMO)
Molecule has the following symmetry elements: (sigma)
It seems to be the Cs point group
         9                         -0.3397280              -9.2445 (LUMO)
        10                         -0.1513310              -4.1179
        11                          0.0020709               0.0564
        12                          0.3150348               8.5725
      -------------------------------------------------------------
                  HL-Gap            0.1077814 Eh            2.9329 eV

     #   Z        covCN         q      C6AA      Î±(0)
     1   8 O      1.770    -0.047    15.094     5.246
     2   7 N      1.827     0.011    21.743     6.909
     3   6 C      1.764     0.036    30.328     8.904

Wiberg/Mayer (AO) data.
largest (>0.10) Wiberg bond orders for each atom
          total WBO             WBO to atom ...

molecular dipole:
                 x           y           z       tot (Debye)
 q only:        0.032      -0.105       0.000
   full:       -0.142       0.243      -0.000       0.715

 projected vibrational frequencies (cm-1)
eigval :       -0.00    -0.00    -0.00     0.00     0.00     0.00
eigval :      804.20  1113.87  1606.43

   temp. (K)  partition function   enthalpy   heat capacity  entropy
                                   cal/mol     cal/K/mol   cal/K/mol   J/K/mol
  10.00  VIB   1.00                    0.000      0.000     -0.000
         ROT   29.9                   29.809      2.981      9.731
         INT   29.9                   29.809      2.981      9.731
         TR   0.162E+25               49.681      4.968     20.258
         TOT                          79.4904     7.9490    29.9890   125.4740

       T/K    H(0)-H(T)+PV         H(T)/Eh          T*S/Eh         G(T)/Eh
   ------------------------------------------------------------------------
    298.15    0.388080E-02    0.119102E-01    0.271957E-01   -0.152855E-01
    120.00    0.152036E-02    0.954978E-02    0.951133E-02    0.384481E-04
    100.00    0.126680E-02    0.929621E-02    0.769503E-02    0.160118E-02
     80.00    0.101341E-02    0.904283E-02    0.592993E-02    0.311290E-02
     60.00    0.760056E-03    0.878947E-02    0.422886E-02    0.456062E-02
     40.00    0.506704E-03    0.853612E-02    0.261385E-02    0.592227E-02
     20.00    0.253352E-03    0.828277E-02    0.113137E-02    0.715140E-02
     10.00    0.126676E-03    0.815609E-02    0.477905E-03    0.767819E-02 (used)
   ------------------------------------------------------------------------

         :::::::::::::::::::::::::::::::::::::::::::::::::::::
         ::                  THERMODYNAMIC                  ::
         :::::::::::::::::::::::::::::::::::::::::::::::::::::
         :: total free energy          -8.872314013266 Eh   ::
         ::.................................................::
         :: total energy               -8.879992202534 Eh   ::
         :: zero point energy           0.008029418618 Eh   ::
         :: G(RRHO) w/o ZPVE           -0.000351229350 Eh   ::
         :: G(RRHO) contrib.            0.007678189268 Eh   ::
         :::::::::::::::::::::::::::::::::::::::::::::::::::::

           -------------------------------------------------
          | TOTAL ENERGY               -8.879992202534 Eh   |
          | TOTAL ENTHALPY             -8.871836107900 Eh   |
          | TOTAL FREE ENERGY          -8.872314013266 Eh   |
          | GRADIENT NORM               0.000078056239 Eh/Î± |
          | HOMO-LUMO GAP               2.932880153800 eV   |
           -------------------------------------------------

 * finished run on 2020/05/12 at 11:44:41.309
