 Gaussian 16, Revision B.01,

 ----------------------------------------------------------------
 #P M062X/cc-pvtz nosymm opt(noeigentest) optcyc=120 freq scf=xqc
 ----------------------------------------------------------------

 -----
 Title
 -----
 Symbolic Z-matrix:
 Charge =  0 Multiplicity = 2

 SCF Done:  E(UM062X) =  -283.045570532     A.U. after   25 cycles
 SCF Done:  E(UM062X) =  -283.067496490     A.U. after   24 cycles
 SCF Done:  E(UM062X) =  -283.070238669     A.U. after   23 cycles
 SCF Done:  E(UM062X) =  -283.070426743     A.U. after   22 cycles
 SCF Done:  E(UM062X) =  -283.070451445     A.U. after   20 cycles
 SCF Done:  E(UM062X) =  -283.070461973     A.U. after   17 cycles
 SCF Done:  E(UM062X) =  -283.070462486     A.U. after   15 cycles
 Optimization completed.
    -- Stationary point found.

 1\1\GINC-N1057\FOpt\UM062X\CC-pVTZ\C6N1(2)\SPANTALEONE\12-Oct-2020\0\\
 #P M062X/cc-pvtz nosymm opt(noeigentest) optcyc=120 freq scf=xqc\\Titl
 e\\0,2\C,-0.0096561198,0.0000000208,-0.0212116393\C,-0.0221538519,0.00
 00000577,1.238972446\C,-0.0014588986,-0.0000000061,2.5592355836\C,0.02
 78301832,-0.0000000186,3.7820165476\C,0.0973093333,-0.0000000157,5.142
 3514448\N,0.1624822602,0.0000000059,6.2947310018\C,0.0130019287,-0.000
 0000441,-1.3290119214\\Version=ES64L-G16RevB.01\HF=-283.0704625\S2=0.7
 85903\S2-1=0.\S2A=0.750687\RMSD=4.839e-09\RMSF=1.206e-04\Dipole=-0.050

 Normal termination of Gaussian 16 at Mon Oct 12 17:25:13 2020.

 -------------------------------------------------------------------
 #P Geom=AllCheck Guess=TCheck SCRF=Check GenChk UM062X/CC-pVTZ Freq
 -------------------------------------------------------------------

 Structure from the checkpoint file:  "input.chk"
 -----
 Title
 -----
 Charge =  0 Multiplicity = 2

 SCF Done:  E(UM062X) =  -283.070462486     A.U. after    1 cycles

  Exact polarizability:  35.687  -0.000  35.490   2.951   0.000 217.572
 Approx polarizability:  43.457   0.000  43.931   4.406   0.000 335.291

                      1                      2                      3
                      A                      A                      A
 Frequencies --     77.0101               175.4168               180.6161
 Red. masses --     12.4593                12.1488                12.1834
 Frc consts  --      0.0435                 0.2203                 0.2342
 IR Inten    --      6.5648                 0.9093                 0.0105

                      4                      5                      6
                      A                      A                      A
 Frequencies --    311.2301               368.0796               433.3866
 Red. masses --     12.1667                12.0266                12.0319
 Frc consts  --      0.6944                 0.9600                 1.3315
 IR Inten    --      6.2653                 2.8137                 0.0020

                      7                      8                      9
                      A                      A                      A
 Frequencies --    492.8084               535.1995               548.9562
 Red. masses --     12.1932                12.0181                12.1008
 Frc consts  --      1.7447                 2.0282                 2.1485
 IR Inten    --      6.7660                 1.0381                 1.4109

                     10                     11                     12
                      A                      A                      A
 Frequencies --    555.0799              1061.8692              1536.1717
 Red. masses --     12.4968                12.2822                12.0528
 Frc consts  --      2.2686                 8.1596                16.7578
 IR Inten    --      3.4067                21.5796               174.4590

                     13                     14                     15
                      A                      A                      A
 Frequencies --   1903.9142              2153.7448              2350.5612
 Red. masses --     12.0126                12.0607                12.5847
 Frc consts  --     25.6556                32.9618                40.9673
 IR Inten    --    760.3404                44.3574                61.3601

 - Thermochemistry -
 -------------------
 Temperature   298.150 Kelvin.  Pressure   1.00000 Atm.
 Atom     1 has atomic number  6 and mass  12.00000

 Molecular mass:    86.00307 amu.
 Principal axes and moments of inertia in atomic units:
                           1         2         3
     Eigenvalues --     0.411362055.711642056.12300
           X            0.02048   0.99979   0.00000
           Y            0.00000  -0.00000   1.00000
           Z            0.99979  -0.02048  -0.00000
 This molecule is an asymmetric top.
 Rotational symmetry number  1.
 Rotational temperatures (Kelvin)    210.55278     0.04213     0.04212
 Rotational constants (GHZ):        4387.20783     0.87792     0.87774
 Zero-point vibrational energy      75867.4 (Joules/Mol)
                                   18.13275 (Kcal/Mol)
 Warning -- explicit consideration of  10 degrees of freedom as
           vibrations may cause significant error
 Vibrational temperatures:    110.80   252.39   259.87   447.79   529.58
          (Kelvin)            623.55   709.04   770.03   789.83   798.64
                             1527.79  2210.21  2739.31  3098.76  3381.93

 Zero-point correction=                           0.028896 (Hartree/Particle)
 Thermal correction to Energy=                    0.035567
 Thermal correction to Enthalpy=                  0.036511
 Thermal correction to Gibbs Free Energy=        -0.000121
 Sum of electronic and zero-point Energies=           -283.041566
 Sum of electronic and thermal Energies=              -283.034896
 Sum of electronic and thermal Enthalpies=            -283.033951
 Sum of electronic and thermal Free Energies=         -283.070584

                     E (Thermal)             CV                S
                      KCal/Mol        Cal/Mol-Kelvin    Cal/Mol-Kelvin
 Total                   22.319             21.368             77.099
 Electronic               0.000              0.000              1.377
 Translational            0.889              2.981             39.269
 Rotational               0.889              2.981             22.080
 Vibrational             20.541             15.407             14.374
 Vibration     1          0.599              1.964              3.966
 Vibration     2          0.627              1.873              2.377
 Vibration     3          0.630              1.866              2.322
 Vibration     4          0.700              1.652              1.356
 Vibration     5          0.741              1.538              1.088
 Vibration     6          0.794              1.397              0.848
 Vibration     7          0.849              1.266              0.676
 Vibration     8          0.890              1.172              0.576
 Vibration     9          0.904              1.142              0.546
 Vibration    10          0.911              1.129              0.534

 Optimization completed.
    -- Stationary point found.

 1\1\GINC-N1057\Freq\UM062X\CC-pVTZ\C6N1(2)\SPANTALEONE\12-Oct-2020\0\\
 #P Geom=AllCheck Guess=TCheck SCRF=Check GenChk UM062X/CC-pVTZ Freq\\T
 itle\\0,2\C,-0.0096561198,0.0000000208,-0.0212116393\C,-0.0221538519,0
 .0000000577,1.238972446\C,-0.0014588986,-0.0000000061,2.5592355836\C,0
 .0278301832,-0.0000000186,3.7820165476\C,0.0973093333,-0.0000000157,5.
 1423514448\N,0.1624822602,0.0000000059,6.2947310018\C,0.0130019287,-0.
 0000000441,-1.3290119214\\Version=ES64L-G16RevB.01\HF=-283.0704625\S2=
 0.785903\S2-1=0.\S2A=0.750687\RMSD=1.039e-09\RMSF=1.206e-04\ZeroPoint=

 Normal termination of Gaussian 16 at Mon Oct 12 17:26:47 2020.
 Gaussian 16:  ES64L-G16RevB.01 20-Dec-2017

 -------------------------------------------------
 #P ROCCSD(T)/aug-cc-pvtz geom=allcheck guess=read
 -------------------------------------------------

 Structure from the checkpoint file:  "input.chk"
 -----
 Title
 -----
 Charge =  0 Multiplicity = 2

                         Standard orientation:
 ---------------------------------------------------------------------
 Center     Atomic      Atomic             Coordinates (Angstroms)
 Number     Number       Type             X           Y           Z
 ---------------------------------------------------------------------
      1          6           0       -2.633262    0.003175    0.000000
      2          6           0       -1.373598   -0.035122    0.000000
      3          6           0       -0.053188   -0.041463   -0.000000
      4          6           0        1.169936   -0.037215   -0.000000
      5          6           0        2.531409    0.004398   -0.000000
      6          7           0        3.684881    0.045963    0.000000
      7          6           0       -3.940324    0.052604   -0.000000
 ---------------------------------------------------------------------

 SCF Done:  E(ROHF) =  -281.459239604     A.U. after   25 cycles
 E2 =    -0.1047790613D+01 EUMP2 =    -0.28250703021682D+03
 CCSD(T)
 CCSD(T)= -0.28258253803D+03

 The electronic state is 2-A.
 Alpha  occ. eigenvalues --  -15.63179 -11.35773 -11.34803 -11.34236 -11.33990
 Alpha  occ. eigenvalues --  -11.33272 -11.30176  -1.27420  -1.17913  -1.12182
 Alpha  occ. eigenvalues --   -1.02881  -0.93371  -0.85602  -0.61297  -0.61097
 Alpha  occ. eigenvalues --   -0.58509  -0.56039  -0.52406  -0.51425  -0.47570
 Alpha  occ. eigenvalues --   -0.42951  -0.34720
 Alpha virt. eigenvalues --   -0.05702   0.03997   0.04902   0.05123   0.06382
 Alpha virt. eigenvalues --    0.06468   0.06724   0.07391   0.08436   0.08728
 Alpha virt. eigenvalues --    0.09261   0.11033   0.11846   0.12612   0.13853

 Mulliken charges and spin densities:
               1          2
     1  C   -0.521683   0.073454
     2  C    1.455611   0.168579
     3  C   -0.431825   0.006059
     4  C    1.716664   0.057805
     5  C   -0.998232  -0.001060
     6  N   -0.405784   0.010341
     7  C   -0.814751   0.684822
 Sum of Mulliken charges =  -0.00000   1.00000

 Dipole moment (field-independent basis, Debye):
    X=             -0.3197    Y=             -0.1278    Z=              0.0000  Tot=              0.3443
 Quadrupole moment (field-independent basis, Debye-Ang):
   XX=            -64.0181   YY=            -39.6006   ZZ=            -38.0060
   XY=              0.0146   XZ=             -0.0000   YZ=             -0.0000

 -282.5070302\MP4SDQ=-282.5098634\CCSD=-282.510974\CCSD(T)=-282.582538\
 Normal termination of Gaussian 16 at Mon Oct 12 19:54:20 2020.
