   * xtb version 6.2.2 (9d81278992624c895f80dd42a50cac0aa55982e2) compiled by '@Darwin' on 04/03/2020
          program call               : xtb --input C3O1_6_S_0.input C3O1_6_S_0.xyz --ohess --molden --namespace C3O1_6_S_0 output.out
          number of atoms            :                     4
          number of electrons        :                    18
          charge                     :                     0
          spin                       :                   0.0

   ID    Z sym.   atoms
    1    8 O      1
    2    6 C      2-4

          :  Hamiltonian                  GFN2-xTB          :
 * total energy  :   -10.1164517 Eh     change       -0.5759073E-09 Eh
 * total energy  :   -10.1459304 Eh     change       -0.2947869E-01 Eh
 * total energy  :   -10.1572070 Eh     change       -0.1127662E-01 Eh
 * total energy  :   -10.1579354 Eh     change       -0.7283728E-03 Eh
 * total energy  :   -10.1581421 Eh     change       -0.2067950E-03 Eh
 * total energy  :   -10.1581470 Eh     change       -0.4812346E-05 Eh
   *** GEOMETRY OPTIMIZATION CONVERGED AFTER 6 ITERATIONS ***

 final structure:
================
4
 xtb: 6.2.2 (9d81278992624c895f80dd42a50cac0aa55982e2)
O        -1.16086420324315   -0.03009529885414    0.00100788471904
C        -0.02733452637920    0.74605527715724   -0.00000688900677
C         1.17683464969793    0.03051398626467   -0.00120106087066
C         0.01136407992442   -0.74647396456777    0.00020006515839

          :  Hamiltonian                  GFN2-xTB          :
         :: gradient norm              0.000715294779 Eh/a0 ::
         :: HOMO-LUMO gap              2.087930098981 eV    ::
         :: SCC energy               -10.257534828692 Eh    ::
         :: -> dispersion             -0.001577937488 Eh    ::
         :: repulsion energy           0.099387866485 Eh    ::

    * Orbital Energies and Occupations

         #    Occupation            Energy/Eh            Energy/eV
      -------------------------------------------------------------
         1        2.0000           -0.8130899             -22.1253
         2        2.0000           -0.7282934             -19.8179
         3        2.0000           -0.6739398             -18.3388
         4        2.0000           -0.6334550             -17.2372
         5        2.0000           -0.6254064             -17.0182
         6        2.0000           -0.5811364             -15.8135
         7        2.0000           -0.4855525             -13.2126
         8        2.0000           -0.4648692             -12.6497
         9        2.0000           -0.4482285             -12.1969 (HOMO)
        10                         -0.3714988             -10.1090 (LUMO)
        11                         -0.3316820              -9.0255
        12                         -0.2602649              -7.0822
        13                          0.0732456               1.9931
        14                          0.1100388               2.9943
        15                          0.1991640               5.4195
        16                          0.3772108              10.2644
      -------------------------------------------------------------
                  HL-Gap            0.0767297 Eh            2.0879 eV

     #   Z        covCN         q      C6AA      Î±(0)
     1   8 O      1.707    -0.180    17.023     5.571
     2   6 C      2.810     0.159    24.562     8.120
     3   6 C      1.962    -0.137    34.928     9.544
     4   6 C      2.810     0.159    24.562     8.120

Wiberg/Mayer (AO) data.
largest (>0.10) Wiberg bond orders for each atom
          total WBO             WBO to atom ...

molecular dipole:
                 x           y           z       tot (Debye)
 q only:        0.086       0.002       0.000
   full:       -0.613      -0.016       0.001       1.559

 projected vibrational frequencies (cm-1)
eigval :       -0.00    -0.00    -0.00    -0.00     0.00     0.00
eigval :     -399.03   395.07   470.25   934.27  1366.05  1513.17

   temp. (K)  partition function   enthalpy   heat capacity  entropy
                                   cal/mol     cal/K/mol   cal/K/mol   J/K/mol
  10.00  VIB   1.00                    0.000      0.000     -0.001
         ROT   37.8                   29.809      2.981     10.198
         INT   37.8                   29.809      2.981     10.197
         TR   0.223E+25               49.681      4.968     20.895
         TOT                          79.4904     7.9490    31.0915   130.0870

       T/K    H(0)-H(T)+PV         H(T)/Eh          T*S/Eh         G(T)/Eh
   ------------------------------------------------------------------------
    298.15    0.439872E-02    0.150578E-01    0.284808E-01   -0.134230E-01
    120.00    0.154374E-02    0.122029E-01    0.975041E-02    0.245246E-02
    100.00    0.127538E-02    0.119345E-01    0.788089E-02    0.405361E-02
     80.00    0.101534E-02    0.116745E-01    0.607278E-02    0.560168E-02
     60.00    0.760222E-03    0.114193E-01    0.433452E-02    0.708481E-02
     40.00    0.506705E-03    0.111658E-01    0.268416E-02    0.848166E-02
     20.00    0.253352E-03    0.109125E-01    0.116652E-02    0.974595E-02
     10.00    0.126676E-03    0.107858E-01    0.495475E-03    0.102903E-01 (used)
   ------------------------------------------------------------------------

         :::::::::::::::::::::::::::::::::::::::::::::::::::::
         ::                  THERMODYNAMIC                  ::
         :::::::::::::::::::::::::::::::::::::::::::::::::::::
         :: total free energy         -10.147856642885 Eh   ::
         ::.................................................::
         :: total energy              -10.158146959937 Eh   ::
         :: zero point energy           0.010659116257 Eh   ::
         :: G(RRHO) w/o ZPVE           -0.000368799205 Eh   ::
         :: G(RRHO) contrib.            0.010290317052 Eh   ::
         :::::::::::::::::::::::::::::::::::::::::::::::::::::

           -------------------------------------------------
          | TOTAL ENERGY              -10.158146959937 Eh   |
          | TOTAL ENTHALPY            -10.147361167665 Eh   |
          | TOTAL FREE ENERGY         -10.147856642885 Eh   |
          | GRADIENT NORM               0.000715428099 Eh/Î± |
          | HOMO-LUMO GAP               2.087921811023 eV   |
           -------------------------------------------------

 * finished run on 2020/05/12 at 11:45:19.584
