   * xtb version 6.2.2 (9d81278992624c895f80dd42a50cac0aa55982e2) compiled by '@Darwin' on 04/03/2020
          program call               : xtb --input C4N1_27_S_3.input C4N1_27_S_3.xyz --ohess --molden --namespace C4N1_27_S_3 output.out
          number of atoms            :                     5
          number of electrons        :                    21
          charge                     :                     0
          spin                       :                   1.5

   ID    Z sym.   atoms
    1    6 C      1, 2, 4, 5
    2    7 N      3

          :  Hamiltonian                  GFN2-xTB          :
 * total energy  :   -10.8845255 Eh     change       -0.1213174E-07 Eh
 * total energy  :   -10.9093523 Eh     change       -0.2482681E-01 Eh
 * total energy  :   -10.9262881 Eh     change       -0.1693589E-01 Eh
 * total energy  :   -10.9419991 Eh     change       -0.1571096E-01 Eh
 * total energy  :   -10.9591412 Eh     change       -0.1714211E-01 Eh
 * total energy  :   -10.9756479 Eh     change       -0.1650668E-01 Eh
 * total energy  :   -10.9847324 Eh     change       -0.9084547E-02 Eh
 * total energy  :   -10.9902974 Eh     change       -0.5565004E-02 Eh
 * total energy  :   -10.9986099 Eh     change       -0.8312457E-02 Eh
 * total energy  :   -11.0007142 Eh     change       -0.2104311E-02 Eh
 * total energy  :   -11.0074495 Eh     change       -0.2608723E-02 Eh
 * total energy  :   -11.0083693 Eh     change       -0.9198333E-03 Eh
 * total energy  :   -11.0095024 Eh     change       -0.1133044E-02 Eh
 * total energy  :   -11.0098403 Eh     change       -0.3378863E-03 Eh
 * total energy  :   -11.0099446 Eh     change       -0.1043744E-03 Eh
 * total energy  :   -11.0100462 Eh     change       -0.1015155E-03 Eh
 * total energy  :   -11.0101107 Eh     change       -0.6449426E-04 Eh
 * total energy  :   -11.0101609 Eh     change       -0.5019670E-04 Eh
 * total energy  :   -11.0101610 Eh     change       -0.1298505E-06 Eh
   *** GEOMETRY OPTIMIZATION CONVERGED AFTER 20 ITERATIONS ***

 final structure:
================
5
 xtb: 6.2.2 (9d81278992624c895f80dd42a50cac0aa55982e2)
C         1.90535637585760   -0.01243582959880   -0.17899342593823
C         0.65331043610375   -0.00428291722221   -0.06212362194624
N        -1.47314160811648    0.00963691787263    0.13928447495162
C        -0.53908088309134    0.92422390001014    0.02617925358328
C        -0.54644432075352   -0.91714207106175    0.07565231934956

          :  Hamiltonian                  GFN2-xTB          :
         :: gradient norm              0.000846676376 Eh/a0 ::
         :: HOMO-LUMO gap              1.295571000694 eV    ::
         :: SCC energy               -11.182125715061 Eh    ::
         :: -> dispersion             -0.002856692150 Eh    ::
         :: repulsion energy           0.171964720448 Eh    ::

    * Orbital Energies and Occupations

         #    Occupation            Energy/Eh            Energy/eV
      -------------------------------------------------------------
         1        2.0000           -0.7436958             -20.2370
         2        2.0000           -0.6853598             -18.6496
         3        2.0000           -0.6352186             -17.2852
         4        2.0000           -0.6218443             -16.9212
         5        2.0000           -0.5722163             -15.5708
         6        2.0000           -0.5641055             -15.3501
         7        2.0000           -0.4921947             -13.3933
         8        2.0000           -0.4836941             -13.1620
         9        2.0000           -0.4698253             -12.7846
        10        1.0000           -0.4364098             -11.8753
        11        1.0000           -0.4142225             -11.2716
        12        1.0000           -0.3679329             -10.0120 (HOMO)
        13                         -0.3203214              -8.7164 (LUMO)
        14                         -0.3183370              -8.6624
        15                         -0.1770618              -4.8181
        16                          0.0506734               1.3789
        17                          0.0786589               2.1404
        18                          0.2505214               6.8170
        19                          0.3499035               9.5214
        20                          0.8597546              23.3951
      -------------------------------------------------------------
                  HL-Gap            0.0476115 Eh            1.2956 eV

     #   Z        covCN         q      C6AA      Î±(0)
     1   6 C      0.982    -0.059    37.750    10.320
     2   6 C      3.070     0.101    25.689     8.311
     3   7 N      1.958    -0.025    22.417     7.021
     4   6 C      2.670    -0.009    28.214     8.691
     5   6 C      2.670    -0.009    28.214     8.691

Wiberg/Mayer (AO) data.
largest (>0.10) Wiberg bond orders for each atom
          total WBO             WBO to atom ...

molecular dipole:
                 x           y           z       tot (Debye)
 q only:       -0.000      -0.000      -0.000
   full:       -0.044       0.000       0.004       0.112

 projected vibrational frequencies (cm-1)
eigval :       -0.00    -0.00    -0.00    -0.00     0.00     0.00
eigval :      219.68   285.51   304.30   358.62   623.35   900.49
eigval :      953.20  1498.12  1811.29

   temp. (K)  partition function   enthalpy   heat capacity  entropy
                                   cal/mol     cal/K/mol   cal/K/mol   J/K/mol
  10.00  VIB   1.00                    0.000      0.000     -0.007
         ROT   102.                   29.809      2.981     12.175
         INT   102.                   29.809      2.981     12.169
         TR   0.290E+25               49.681      4.968     21.419
         TOT                          79.4904     7.9490    33.5879   140.5319

       T/K    H(0)-H(T)+PV         H(T)/Eh          T*S/Eh         G(T)/Eh
   ------------------------------------------------------------------------
    298.15    0.576450E-02    0.216082E-01    0.319464E-01   -0.103382E-01
    120.00    0.170267E-02    0.175463E-01    0.104401E-01    0.710627E-02
    100.00    0.136026E-02    0.172039E-01    0.838839E-02    0.881554E-02
     80.00    0.104922E-02    0.168929E-01    0.643362E-02    0.104593E-01
     60.00    0.767870E-03    0.166115E-01    0.458293E-02    0.120286E-01
     40.00    0.507148E-03    0.163508E-01    0.284417E-02    0.135066E-01
     20.00    0.253352E-03    0.160970E-01    0.124618E-02    0.148508E-01
     10.00    0.126676E-03    0.159703E-01    0.535258E-03    0.154351E-01 (used)
   ------------------------------------------------------------------------

         :::::::::::::::::::::::::::::::::::::::::::::::::::::
         ::                  THERMODYNAMIC                  ::
         :::::::::::::::::::::::::::::::::::::::::::::::::::::
         :: total free energy         -10.994725895442 Eh   ::
         ::.................................................::
         :: total energy              -11.010160982478 Eh   ::
         :: zero point energy           0.015843668862 Eh   ::
         :: G(RRHO) w/o ZPVE           -0.000408581826 Eh   ::
         :: G(RRHO) contrib.            0.015435087036 Eh   ::
         :::::::::::::::::::::::::::::::::::::::::::::::::::::

           -------------------------------------------------
          | TOTAL ENERGY              -11.010160982478 Eh   |
          | TOTAL ENTHALPY            -10.994190637600 Eh   |
          | TOTAL FREE ENERGY         -10.994725895442 Eh   |
          | GRADIENT NORM               0.000847119489 Eh/Î± |
          | HOMO-LUMO GAP               1.295574739087 eV   |
           -------------------------------------------------

 * finished run on 2020/05/12 at 11:44:10.355
