   * xtb version 6.2.2 (9d81278992624c895f80dd42a50cac0aa55982e2) compiled by '@Darwin' on 04/03/2020
          program call               : xtb --input H1C3N1_10_S_0.input H1C3N1_10_S_0.xyz --ohess --molden --namespace H1C3N1_10_S_0 output.out
          number of atoms            :                     5
          number of electrons        :                    18
          charge                     :                     0
          spin                       :                   0.0

   ID    Z sym.   atoms
    1    6 C      1, 3, 4
    2    7 N      2
    3    1 H      5

          :  Hamiltonian                  GFN2-xTB          :
 * total energy  :    -9.3834456 Eh     change       -0.7280931E-10 Eh
 * total energy  :    -9.4732522 Eh     change       -0.8980660E-01 Eh
 * total energy  :    -9.4496796 Eh     change        0.2357262E-01 Eh
 * total energy  :    -9.5286845 Eh     change       -0.7900490E-01 Eh
 * total energy  :    -9.5319681 Eh     change       -0.3283619E-02 Eh
 * total energy  :    -9.5385234 Eh     change       -0.6555272E-02 Eh
 * total energy  :    -9.5417276 Eh     change       -0.3204265E-02 Eh
 * total energy  :    -9.5459342 Eh     change       -0.4206576E-02 Eh
 * total energy  :    -9.5484229 Eh     change       -0.2488703E-02 Eh
 * total energy  :    -9.5527674 Eh     change       -0.4344475E-02 Eh
 * total energy  :    -9.5641653 Eh     change       -0.1166014E-03 Eh
 * total energy  :    -9.5642001 Eh     change       -0.3474437E-04 Eh
 * total energy  :    -9.5642141 Eh     change       -0.1405571E-04 Eh
 * total energy  :    -9.5642288 Eh     change       -0.1463858E-04 Eh
 * total energy  :    -9.5642317 Eh     change       -0.2934611E-05 Eh
 * total energy  :    -9.5642219 Eh     change        0.9813879E-05 Eh
 * total energy  :    -9.5642304 Eh     change       -0.8564218E-05 Eh
 * total energy  :    -9.5642317 Eh     change       -0.1249869E-05 Eh
 * total energy  :    -9.5642340 Eh     change       -0.2304906E-05 Eh
   *** GEOMETRY OPTIMIZATION CONVERGED AFTER 25 ITERATIONS ***

 final structure:
================
5
 xtb: 6.2.2 (9d81278992624c895f80dd42a50cac0aa55982e2)
C        -0.45470512696573    1.05701873031762    0.35081074376327
N        -0.75683526805296   -0.09242495874185   -0.04211132820516
C         0.69080723001209    0.04748051947073    0.02620855054178
C         1.91530981182287   -0.18949834995504   -0.03665608154379
H        -1.39457664681627   -0.82257594109145   -0.29825188455610

          :  Hamiltonian                  GFN2-xTB          :
         :: gradient norm              0.000106456177 Eh/a0 ::
         :: HOMO-LUMO gap              2.741483561968 eV    ::
         :: SCC energy                -9.736403616310 Eh    ::
         :: -> dispersion             -0.002168899387 Eh    ::
         :: repulsion energy           0.172169561642 Eh    ::

    * Orbital Energies and Occupations

         #    Occupation            Energy/Eh            Energy/eV
      -------------------------------------------------------------
         1        2.0000           -0.7295575             -19.8523
         2        2.0000           -0.6486027             -17.6494
         3        2.0000           -0.6348879             -17.2762
         4        2.0000           -0.5938423             -16.1593
         5        2.0000           -0.5666032             -15.4181
         6        2.0000           -0.5012381             -13.6394
         7        2.0000           -0.4439931             -12.0817
         8        2.0000           -0.4074836             -11.0882
         9        2.0000           -0.4054226             -11.0321 (HOMO)
        10                         -0.3046749              -8.2906 (LUMO)
        11                         -0.3020701              -8.2197
        12                         -0.1658338              -4.5126
        13                         -0.0529272              -1.4402
        14                         -0.0334253              -0.9095
        15                          0.0818987               2.2286
        16                          0.6007842              16.3482
        17                          0.9339335              25.4136
      -------------------------------------------------------------
                  HL-Gap            0.1007477 Eh            2.7415 eV

     #   Z        covCN         q      C6AA      Î±(0)
     1   6 C      1.882    -0.059    32.729     9.240
     2   7 N      2.678     0.023    20.848     6.781
     3   6 C      2.859     0.062    26.608     8.455
     4   6 C      0.981    -0.205    42.819    10.991
     5   1 H      0.861     0.179     1.220     1.730

Wiberg/Mayer (AO) data.
largest (>0.10) Wiberg bond orders for each atom
          total WBO             WBO to atom ...

molecular dipole:
                 x           y           z       tot (Debye)
 q only:       -1.115      -0.322      -0.125
   full:       -1.865      -0.747      -0.279       5.155

 projected vibrational frequencies (cm-1)
eigval :       -0.00    -0.00     0.00     0.00     0.00     0.00
eigval :      268.66   372.10   532.45   604.95   780.46   868.31
eigval :     1620.19  1949.57  3482.79

   temp. (K)  partition function   enthalpy   heat capacity  entropy
                                   cal/mol     cal/K/mol   cal/K/mol   J/K/mol
  10.00  VIB   1.00                    0.000      0.000     -0.003
         ROT   109.                   29.809      2.981     12.313
         INT   109.                   29.809      2.981     12.310
         TR   0.217E+25               49.681      4.968     20.838
         TOT                          79.4904     7.9490    33.1480   138.6910

       T/K    H(0)-H(T)+PV         H(T)/Eh          T*S/Eh         G(T)/Eh
   ------------------------------------------------------------------------
    298.15    0.508241E-02    0.289565E-01    0.305130E-01   -0.155654E-02
    120.00    0.159728E-02    0.254713E-01    0.102139E-01    0.152575E-01
    100.00    0.130268E-02    0.251767E-01    0.824330E-02    0.169334E-01
     80.00    0.102558E-02    0.248996E-01    0.634761E-02    0.185520E-01
     60.00    0.762243E-03    0.246363E-01    0.453370E-02    0.201026E-01
     40.00    0.506784E-03    0.243808E-01    0.281545E-02    0.215654E-01
     20.00    0.253352E-03    0.241274E-01    0.123209E-02    0.228953E-01
     10.00    0.126676E-03    0.240007E-01    0.528246E-03    0.234725E-01 (used)
   ------------------------------------------------------------------------

         :::::::::::::::::::::::::::::::::::::::::::::::::::::
         ::                  THERMODYNAMIC                  ::
         :::::::::::::::::::::::::::::::::::::::::::::::::::::
         :: total free energy          -9.540761516103 Eh   ::
         ::.................................................::
         :: total energy               -9.564233999067 Eh   ::
         :: zero point energy           0.023874053242 Eh   ::
         :: G(RRHO) w/o ZPVE           -0.000401570279 Eh   ::
         :: G(RRHO) contrib.            0.023472482964 Eh   ::
         :::::::::::::::::::::::::::::::::::::::::::::::::::::

           -------------------------------------------------
          | TOTAL ENERGY               -9.564233999067 Eh   |
          | TOTAL ENTHALPY             -9.540233269809 Eh   |
          | TOTAL FREE ENERGY          -9.540761516103 Eh   |
          | GRADIENT NORM               0.000106470738 Eh/Î± |
          | HOMO-LUMO GAP               2.741485108660 eV   |
           -------------------------------------------------

 * finished run on 2020/05/12 at 11:44:54.199
