   * xtb version 6.2.2 (9d81278992624c895f80dd42a50cac0aa55982e2) compiled by '@Darwin' on 04/03/2020
          program call               : xtb --input H2C2O1_7_S_0.input H2C2O1_7_S_0.xyz --ohess --molden --namespace H2C2O1_7_S_0 output.out
          number of atoms            :                     5
          number of electrons        :                    16
          charge                     :                     0
          spin                       :                   0.0

   ID    Z sym.   atoms
    1    6 C      1, 2
    2    8 O      3
    3    1 H      4, 5

          :  Hamiltonian                  GFN2-xTB          :
 * total energy  :    -9.2107491 Eh     change       -0.5337348E-09 Eh
 * total energy  :    -9.2236148 Eh     change       -0.1286566E-01 Eh
 * total energy  :    -9.2261099 Eh     change       -0.2495122E-02 Eh
 * total energy  :    -9.2273443 Eh     change       -0.1234376E-02 Eh
 * total energy  :    -9.2273922 Eh     change       -0.4796173E-04 Eh
 * total energy  :    -9.2273947 Eh     change       -0.2454743E-05 Eh
   *** GEOMETRY OPTIMIZATION CONVERGED AFTER 6 ITERATIONS ***

 final structure:
================
5
 xtb: 6.2.2 (9d81278992624c895f80dd42a50cac0aa55982e2)
C        -0.29463232388639   -0.00632589744946   -0.07854710820556
C         1.10676473758294   -0.02828897502703   -0.53716663946280
O         0.89827179322209    0.04881158668220    0.71150958905955
H        -0.85962017164523    0.91394949004481   -0.10550728982904
H        -0.85078403527342   -0.92814520425051    0.00971144843785

          :  Hamiltonian                  GFN2-xTB          :
         :: gradient norm              0.000990765648 Eh/a0 ::
         :: HOMO-LUMO gap              3.393134339825 eV    ::
         :: SCC energy                -9.311829055792 Eh    ::
         :: -> dispersion             -0.001343138501 Eh    ::
         :: repulsion energy           0.084434353038 Eh    ::

    * Orbital Energies and Occupations

         #    Occupation            Energy/Eh            Energy/eV
      -------------------------------------------------------------
         1        2.0000           -0.7748016             -21.0834
         2        2.0000           -0.6635000             -18.0548
         3        2.0000           -0.6455275             -17.5657
         4        2.0000           -0.6023426             -16.3906
         5        2.0000           -0.5649934             -15.3743
         6        2.0000           -0.4880234             -13.2798
         7        2.0000           -0.4850002             -13.1975
         8        2.0000           -0.4312295             -11.7344 (HOMO)
         9                         -0.3065341              -8.3412 (LUMO)
        10                         -0.1007573              -2.7417
        11                          0.0632521               1.7212
        12                          0.1666848               4.5357
        13                          0.2460475               6.6953
        14                          0.3957104              10.7678
      -------------------------------------------------------------
                  HL-Gap            0.1246954 Eh            3.3931 eV

     #   Z        covCN         q      C6AA      Î±(0)
     1   6 C      3.677     0.054    19.881     6.388
     2   6 C      1.833    -0.021    31.727     9.100
     3   8 O      1.703    -0.132    16.301     5.451
     4   1 H      0.926     0.049     2.326     2.385
     5   1 H      0.926     0.049     2.326     2.385

Wiberg/Mayer (AO) data.
largest (>0.10) Wiberg bond orders for each atom
          total WBO             WBO to atom ...

molecular dipole:
                 x           y           z       tot (Debye)
 q only:       -0.459      -0.013      -0.173
   full:       -0.758       0.016       0.311       2.083

 projected vibrational frequencies (cm-1)
eigval :       -0.00    -0.00    -0.00     0.00     0.00     0.00
eigval :      882.19   943.71   967.24  1096.23  1121.03  1402.16
eigval :     1572.78  3082.27  3101.53

   temp. (K)  partition function   enthalpy   heat capacity  entropy
                                   cal/mol     cal/K/mol   cal/K/mol   J/K/mol
  10.00  VIB   1.00                    0.000      0.000     -0.000
         ROT   41.0                   29.809      2.981     10.358
         INT   41.0                   29.809      2.981     10.358
         TR   0.162E+25               49.681      4.968     20.259
         TOT                          79.4904     7.9490    30.6175   128.1037

       T/K    H(0)-H(T)+PV         H(T)/Eh          T*S/Eh         G(T)/Eh
   ------------------------------------------------------------------------
    298.15    0.398138E-02    0.362611E-01    0.276134E-01    0.864765E-02
    120.00    0.152033E-02    0.338000E-01    0.963149E-02    0.241685E-01
    100.00    0.126678E-02    0.335465E-01    0.779518E-02    0.257513E-01
     80.00    0.101341E-02    0.332931E-01    0.601006E-02    0.272830E-01
     60.00    0.760056E-03    0.330398E-01    0.428896E-02    0.287508E-01
     40.00    0.506704E-03    0.327864E-01    0.265392E-02    0.301325E-01
     20.00    0.253352E-03    0.325331E-01    0.115140E-02    0.313817E-01
     10.00    0.126676E-03    0.324064E-01    0.487921E-03    0.319185E-01 (used)
   ------------------------------------------------------------------------

         :::::::::::::::::::::::::::::::::::::::::::::::::::::
         ::                  THERMODYNAMIC                  ::
         :::::::::::::::::::::::::::::::::::::::::::::::::::::
         :: total free energy          -9.195476227387 Eh   ::
         ::.................................................::
         :: total energy               -9.227394683816 Eh   ::
         :: zero point energy           0.032279701798 Eh   ::
         :: G(RRHO) w/o ZPVE           -0.000361245369 Eh   ::
         :: G(RRHO) contrib.            0.031918456429 Eh   ::
         :::::::::::::::::::::::::::::::::::::::::::::::::::::

           -------------------------------------------------
          | TOTAL ENERGY               -9.227394683816 Eh   |
          | TOTAL ENTHALPY             -9.194988306002 Eh   |
          | TOTAL FREE ENERGY          -9.195476227387 Eh   |
          | GRADIENT NORM               0.000990734008 Eh/Î± |
          | HOMO-LUMO GAP               3.393134017879 eV   |
           -------------------------------------------------

 * finished run on 2020/05/12 at 11:45:15.403
