   * xtb version 6.2.2 (9d81278992624c895f80dd42a50cac0aa55982e2) compiled by '@Darwin' on 04/03/2020
          program call               : xtb --input H2C1O2_3_S_2.input H2C1O2_3_S_2.xyz --ohess --molden --namespace H2C1O2_3_S_2 output.out
          number of atoms            :                     5
          number of electrons        :                    18
          charge                     :                     0
          spin                       :                   1.0

   ID    Z sym.   atoms
    1    8 O      1, 3
    2    6 C      2
    3    1 H      4, 5

          :  Hamiltonian                  GFN2-xTB          :
 * total energy  :   -11.0140748 Eh     change       -0.2144436E-09 Eh
 * total energy  :   -11.0228789 Eh     change       -0.8804165E-02 Eh
 * total energy  :   -11.0280622 Eh     change       -0.5183235E-02 Eh
 * total energy  :   -11.0299184 Eh     change       -0.1856249E-02 Eh
 * total energy  :   -11.0301787 Eh     change       -0.2602547E-03 Eh
 * total energy  :   -11.0302402 Eh     change       -0.6153005E-04 Eh
 * total energy  :   -11.0302519 Eh     change       -0.1170998E-04 Eh
 * total energy  :   -11.0302684 Eh     change       -0.1644270E-04 Eh
 * total energy  :   -11.0302816 Eh     change       -0.1320378E-04 Eh
 * total energy  :   -11.0302897 Eh     change       -0.8111208E-05 Eh
 * total energy  :   -11.0302943 Eh     change       -0.4604699E-05 Eh
 * total energy  :   -11.0302959 Eh     change       -0.1672502E-05 Eh
   *** GEOMETRY OPTIMIZATION CONVERGED AFTER 12 ITERATIONS ***

 final structure:
================
5
 xtb: 6.2.2 (9d81278992624c895f80dd42a50cac0aa55982e2)
O         0.75338109081997   -0.09080836589283    0.49446307706600
C        -0.50712732845836    0.00953832947498    0.07119877230619
O         1.76359563744535   -0.01870879026419   -0.36037825090491
H        -0.97115935675291    0.98216715635521    0.01765660890181
H        -1.03868904305404   -0.88218832967318   -0.22293920736909

          :  Hamiltonian                  GFN2-xTB          :
         :: gradient norm              0.000276937929 Eh/a0 ::
         :: HOMO-LUMO gap              8.889340493172 eV    ::
         :: SCC energy               -11.082791054597 Eh    ::
         :: -> dispersion             -0.001187494729 Eh    ::
         :: repulsion energy           0.052495073611 Eh    ::

    * Orbital Energies and Occupations

         #    Occupation            Energy/Eh            Energy/eV
      -------------------------------------------------------------
         1        2.0000           -0.7785345             -21.1850
         2        2.0000           -0.7296613             -19.8551
         3        2.0000           -0.6624259             -18.0255
         4        2.0000           -0.6245984             -16.9962
         5        2.0000           -0.6045021             -16.4493
         6        2.0000           -0.5903074             -16.0631
         7        2.0000           -0.5178607             -14.0917
         8        2.0000           -0.4504329             -12.2569
         9        1.0000           -0.4105922             -11.1728
        10        1.0000           -0.3857054             -10.4956 (HOMO)
        11                         -0.0590282              -1.6062 (LUMO)
        12                          0.0825365               2.2459
        13                          0.2330085               6.3405
        14                          0.2534949               6.8979
      -------------------------------------------------------------
                  HL-Gap            0.3266772 Eh            8.8893 eV

     #   Z        covCN         q      C6AA      Î±(0)
     1   8 O      1.823     0.022    14.185     5.086
     2   6 C      2.708     0.022    27.490     8.582
     3   8 O      0.971    -0.257    18.968     5.842
     4   1 H      0.926     0.106     1.729     2.056
     5   1 H      0.926     0.106     1.729     2.056

Wiberg/Mayer (AO) data.
largest (>0.10) Wiberg bond orders for each atom
          total WBO             WBO to atom ...

molecular dipole:
                 x           y           z       tot (Debye)
 q only:       -1.248       0.026       0.157
   full:       -1.377       0.033       0.138       3.518

 projected vibrational frequencies (cm-1)
eigval :       -0.00    -0.00    -0.00    -0.00     0.00     0.00
eigval :      268.95   419.75   488.61   959.31  1082.14  1103.43
eigval :     1300.88  3044.46  3075.20

   temp. (K)  partition function   enthalpy   heat capacity  entropy
                                   cal/mol     cal/K/mol   cal/K/mol   J/K/mol
  10.00  VIB   1.00                    0.000      0.000     -0.002
         ROT   55.6                   29.809      2.981     10.966
         INT   55.6                   29.809      2.981     10.964
         TR   0.186E+25               49.681      4.968     20.529
         TOT                          79.4904     7.9490    31.4933   131.7679

       T/K    H(0)-H(T)+PV         H(T)/Eh          T*S/Eh         G(T)/Eh
   ------------------------------------------------------------------------
    298.15    0.486619E-02    0.316182E-01    0.294221E-01    0.219605E-02
    120.00    0.158986E-02    0.283418E-01    0.988810E-02    0.184537E-01
    100.00    0.129942E-02    0.280514E-01    0.797560E-02    0.200758E-01
     80.00    0.102455E-02    0.277765E-01    0.613542E-02    0.216411E-01
     60.00    0.762097E-03    0.275141E-01    0.437529E-02    0.231388E-01
     40.00    0.506782E-03    0.272587E-01    0.270996E-02    0.245488E-01
     20.00    0.253352E-03    0.270053E-01    0.117934E-02    0.258260E-01
     10.00    0.126676E-03    0.268786E-01    0.501877E-03    0.263768E-01 (used)
   ------------------------------------------------------------------------

         :::::::::::::::::::::::::::::::::::::::::::::::::::::
         ::                  THERMODYNAMIC                  ::
         :::::::::::::::::::::::::::::::::::::::::::::::::::::
         :: total free energy         -11.003919186051 Eh   ::
         ::.................................................::
         :: total energy              -11.030295952585 Eh   ::
         :: zero point energy           0.026751967890 Eh   ::
         :: G(RRHO) w/o ZPVE           -0.000375201356 Eh   ::
         :: G(RRHO) contrib.            0.026376766533 Eh   ::
         :::::::::::::::::::::::::::::::::::::::::::::::::::::

           -------------------------------------------------
          | TOTAL ENERGY              -11.030295952585 Eh   |
          | TOTAL ENTHALPY            -11.003417308679 Eh   |
          | TOTAL FREE ENERGY         -11.003919186051 Eh   |
          | GRADIENT NORM               0.000276992994 Eh/Î± |
          | HOMO-LUMO GAP               8.889339076039 eV   |
           -------------------------------------------------

 * finished run on 2020/05/12 at 11:43:52.907
