   * xtb version 6.2.2 (9d81278992624c895f80dd42a50cac0aa55982e2) compiled by '@Darwin' on 04/03/2020
          program call               : xtb --input H2C1O2_1_S_2.input H2C1O2_1_S_2.xyz --ohess --molden --namespace H2C1O2_1_S_2 output.out
          number of atoms            :                     5
          number of electrons        :                    18
          charge                     :                     0
          spin                       :                   1.0

   ID    Z sym.   atoms
    1    6 C      1
    2    8 O      2, 3
    3    1 H      4, 5

          :  Hamiltonian                  GFN2-xTB          :
 * total energy  :   -11.0847814 Eh     change       -0.7353727E-09 Eh
 * total energy  :   -11.0973750 Eh     change       -0.1259361E-01 Eh
 * total energy  :   -11.1013623 Eh     change       -0.3987243E-02 Eh
 * total energy  :   -11.1019677 Eh     change       -0.6054250E-03 Eh
 * total energy  :   -11.1021718 Eh     change       -0.2040644E-03 Eh
 * total energy  :   -11.1022853 Eh     change       -0.1135648E-03 Eh
 * total energy  :   -11.1024203 Eh     change       -0.1349945E-03 Eh
 * total energy  :   -11.1025542 Eh     change       -0.1338603E-03 Eh
 * total energy  :   -11.1028162 Eh     change       -0.2619793E-03 Eh
 * total energy  :   -11.1029699 Eh     change       -0.1537108E-03 Eh
 * total energy  :   -11.1032145 Eh     change       -0.9162257E-04 Eh
 * total energy  :   -11.1033094 Eh     change       -0.9498124E-04 Eh
 * total energy  :   -11.1033890 Eh     change       -0.7954205E-04 Eh
 * total energy  :   -11.1034275 Eh     change       -0.3852715E-04 Eh
 * total energy  :   -11.1034400 Eh     change       -0.1246875E-04 Eh
 * total energy  :   -11.1034423 Eh     change       -0.2348864E-05 Eh
 * total energy  :   -11.1034620 Eh     change       -0.1969965E-04 Eh
 * total energy  :   -11.1034672 Eh     change       -0.5161660E-05 Eh
 * total energy  :   -11.1034699 Eh     change       -0.2685290E-05 Eh
   *** GEOMETRY OPTIMIZATION CONVERGED AFTER 20 ITERATIONS ***

 final structure:
================
5
 xtb: 6.2.2 (9d81278992624c895f80dd42a50cac0aa55982e2)
C        -0.34971126198512    0.02325014950194   -0.22178774750294
O         0.89439601106376   -0.27574172456473    0.29711936486986
O        -1.19070730494042    0.89548657035520    0.20836917509485
H        -0.91388080470250   -0.95895405794258   -0.20158138233352
H         1.55990436056427    0.31595906265017   -0.08211941012823

          :  Hamiltonian                  GFN2-xTB          :
         :: gradient norm              0.000932551052 Eh/a0 ::
         :: HOMO-LUMO gap              9.696414415076 eV    ::
         :: SCC energy               -11.160118766478 Eh    ::
         :: -> dispersion             -0.001133102523 Eh    ::
         :: repulsion energy           0.056648868884 Eh    ::

    * Orbital Energies and Occupations

         #    Occupation            Energy/Eh            Energy/eV
      -------------------------------------------------------------
         1        2.0000           -0.7367574             -20.0482
         2        2.0000           -0.7168918             -19.5076
         3        2.0000           -0.6511683             -17.7192
         4        2.0000           -0.5967558             -16.2386
         5        2.0000           -0.5821892             -15.8422
         6        2.0000           -0.5582670             -15.1912
         7        2.0000           -0.5216399             -14.1945
         8        2.0000           -0.4798851             -13.0583
         9        1.0000           -0.4334221             -11.7940
        10        1.0000           -0.3034767              -8.2580 (HOMO)
        11                          0.0528600               1.4384 (LUMO)
        12                          0.0957682               2.6060
        13                          0.1785480               4.8585
        14                          0.3712963              10.1035
      -------------------------------------------------------------
                  HL-Gap            0.3563367 Eh            9.6964 eV

     #   Z        covCN         q      C6AA      Î±(0)
     1   6 C      2.624     0.164    24.457     8.089
     2   8 O      1.657    -0.368    20.242     6.074
     3   8 O      0.855    -0.297    19.721     5.954
     4   1 H      0.917     0.176     1.230     1.735
     5   1 H      0.805     0.325     0.651     1.267

Wiberg/Mayer (AO) data.
largest (>0.10) Wiberg bond orders for each atom
          total WBO             WBO to atom ...

molecular dipole:
                 x           y           z       tot (Debye)
 q only:        0.591      -0.428      -0.510
   full:        0.710      -0.450      -0.498       2.484

 projected vibrational frequencies (cm-1)
eigval :       -0.00    -0.00    -0.00     0.00     0.00     0.00
eigval :      192.14   505.82   702.74  1013.43  1065.16  1162.17
eigval :     1416.83  2442.72  3450.99

   temp. (K)  partition function   enthalpy   heat capacity  entropy
                                   cal/mol     cal/K/mol   cal/K/mol   J/K/mol
  10.00  VIB   1.00                    0.000      0.000     -0.006
         ROT   58.3                   29.809      2.981     11.061
         INT   58.3                   29.809      2.981     11.056
         TR   0.186E+25               49.681      4.968     20.529
         TOT                          79.4904     7.9490    31.5850   132.1518

       T/K    H(0)-H(T)+PV         H(T)/Eh          T*S/Eh         G(T)/Eh
   ------------------------------------------------------------------------
    298.15    0.477149E-02    0.320002E-01    0.294340E-01    0.256618E-02
    120.00    0.162337E-02    0.288521E-01    0.996208E-02    0.188900E-01
    100.00    0.132736E-02    0.285560E-01    0.803212E-02    0.205239E-01
     80.00    0.104221E-02    0.282709E-01    0.617143E-02    0.220995E-01
     60.00    0.768891E-03    0.279976E-01    0.439295E-02    0.236046E-01
     40.00    0.507577E-03    0.277363E-01    0.271699E-02    0.250193E-01
     20.00    0.253353E-03    0.274820E-01    0.118234E-02    0.262997E-01
     10.00    0.126676E-03    0.273554E-01    0.503340E-03    0.268520E-01 (used)
   ------------------------------------------------------------------------

         :::::::::::::::::::::::::::::::::::::::::::::::::::::
         ::                  THERMODYNAMIC                  ::
         :::::::::::::::::::::::::::::::::::::::::::::::::::::
         :: total free energy         -11.076617856311 Eh   ::
         ::.................................................::
         :: total energy              -11.103469870567 Eh   ::
         :: zero point energy           0.027228677894 Eh   ::
         :: G(RRHO) w/o ZPVE           -0.000376663638 Eh   ::
         :: G(RRHO) contrib.            0.026852014256 Eh   ::
         :::::::::::::::::::::::::::::::::::::::::::::::::::::

           -------------------------------------------------
          | TOTAL ENERGY              -11.103469870567 Eh   |
          | TOTAL ENTHALPY            -11.076114516657 Eh   |
          | TOTAL FREE ENERGY         -11.076617856311 Eh   |
          | GRADIENT NORM               0.000932585714 Eh/Î± |
          | HOMO-LUMO GAP               9.696414031208 eV   |
           -------------------------------------------------

 * finished run on 2020/05/12 at 11:43:52.411
