   * xtb version 6.2.2 (9d81278992624c895f80dd42a50cac0aa55982e2) compiled by '@Darwin' on 04/03/2020
          program call               : xtb --input C4N1_13_S_1.input C4N1_13_S_1.xyz --ohess --molden --namespace C4N1_13_S_1 output.out
          number of atoms            :                     5
          number of electrons        :                    21
          charge                     :                     0
          spin                       :                   0.5

   ID    Z sym.   atoms
    1    6 C      1, 3-5
    2    7 N      2

          :  Hamiltonian                  GFN2-xTB          :
 * total energy  :   -10.8903275 Eh     change        0.1021583E-10 Eh
 * total energy  :   -10.9596453 Eh     change       -0.6931784E-01 Eh
 * total energy  :   -10.9651670 Eh     change       -0.5521645E-02 Eh
 * total energy  :   -11.0340575 Eh     change       -0.6889050E-01 Eh
 * total energy  :   -11.0462379 Eh     change       -0.1218046E-01 Eh
 * total energy  :   -11.0584343 Eh     change       -0.1219634E-01 Eh
 * total energy  :   -11.0655440 Eh     change       -0.7109763E-02 Eh
 * total energy  :   -11.0800616 Eh     change       -0.1451759E-01 Eh
 * total energy  :   -11.0879113 Eh     change       -0.7849627E-02 Eh
 * total energy  :   -11.1053748 Eh     change       -0.1746355E-01 Eh
 * total energy  :   -11.1570032 Eh     change       -0.1083887E-02 Eh
 * total energy  :   -11.1573039 Eh     change       -0.3006663E-03 Eh
 * total energy  :   -11.1574793 Eh     change       -0.1754173E-03 Eh
 * total energy  :   -11.1577153 Eh     change       -0.2359675E-03 Eh
 * total energy  :   -11.1578482 Eh     change       -0.1328785E-03 Eh
 * total energy  :   -11.1579197 Eh     change       -0.7151950E-04 Eh
 * total energy  :   -11.1579664 Eh     change       -0.4672953E-04 Eh
 * total energy  :   -11.1579763 Eh     change       -0.9839658E-05 Eh
 * total energy  :   -11.1579773 Eh     change       -0.1067000E-05 Eh
   *** GEOMETRY OPTIMIZATION CONVERGED AFTER 32 ITERATIONS ***

 final structure:
================
5
 xtb: 6.2.2 (9d81278992624c895f80dd42a50cac0aa55982e2)
C        -2.46740449866491   -0.14979534886702   -0.02583720028365
N        -1.27433006538259   -0.08225137298566   -0.01194028885326
C         1.23970245190159    0.07955306145591    0.01186526958849
C        -0.02630635239644   -0.00509985395504    0.00005289046942
C         2.52833846454238    0.15759351435179    0.02585932907899

          :  Hamiltonian                  GFN2-xTB          :
         :: gradient norm              0.000731153835 Eh/a0 ::
         :: HOMO-LUMO gap              0.000011257022 eV    ::
         :: SCC energy               -11.414312977187 Eh    ::
         :: -> dispersion             -0.002663302146 Eh    ::
         :: repulsion energy           0.256336819970 Eh    ::

    * Orbital Energies and Occupations

         #    Occupation            Energy/Eh            Energy/eV
      -------------------------------------------------------------
         1        2.0000           -0.7214461             -19.6315
         2        2.0000           -0.6914767             -18.8160
         3        2.0000           -0.6671937             -18.1553
         4        2.0000           -0.6244489             -16.9921
         5        2.0000           -0.5814783             -15.8228
         6        2.0000           -0.5814773             -15.8228
         7        2.0000           -0.4863168             -13.2334
         8        2.0000           -0.4863090             -13.2331
         9        2.0000           -0.4828140             -13.1380
        10        2.0000           -0.4432632             -12.0618
        11        0.5001           -0.3822478             -10.4015 (HOMO)
        12        0.4999           -0.3822473             -10.4015 (LUMO)
        13                         -0.2635831              -7.1725
        14                         -0.2635787              -7.1723
        15                         -0.1288426              -3.5060
        16                         -0.1288333              -3.5057
        17                          0.0341041               0.9280
        18                          0.4270236              11.6199
        19                          0.9036821              24.5904
        20                          1.4019006              38.1477
      -------------------------------------------------------------
                  HL-Gap            0.0000004 Eh            0.0000 eV

     #   Z        covCN         q      C6AA      Î±(0)
     1   6 C      0.919    -0.109    38.937    10.448
     2   7 N      1.822     0.104    20.080     6.640
     3   6 C      1.962     0.037    30.129     8.864
     4   6 C      1.902     0.096    28.717     8.655
     5   6 C      0.982    -0.128    40.062    10.632

Wiberg/Mayer (AO) data.
largest (>0.10) Wiberg bond orders for each atom
          total WBO             WBO to atom ...

molecular dipole:
                 x           y           z       tot (Debye)
 q only:       -0.274      -0.019      -0.002
   full:       -0.395      -0.028      -0.004       1.007

 projected vibrational frequencies (cm-1)
eigval :       -0.00    -0.00    -0.00    -0.00     0.00     0.00
eigval :      117.89   185.07   262.91   392.07   400.26   829.52
eigval :     1561.93  1953.89  1978.72

   temp. (K)  partition function   enthalpy   heat capacity  entropy
                                   cal/mol     cal/K/mol   cal/K/mol   J/K/mol
  10.00  VIB   1.00                    0.000      0.000     -0.030
         ROT   2.07                   29.809      2.981      4.430
         INT   2.07                   29.809      2.981      4.400
         TR   0.290E+25               49.681      4.968     21.419
         TOT                          79.4904     7.9491    25.8193   108.0279

       T/K    H(0)-H(T)+PV         H(T)/Eh          T*S/Eh         G(T)/Eh
   ------------------------------------------------------------------------
    298.15    0.623269E-02    0.237341E-01    0.294676E-01   -0.573344E-02
    120.00    0.188091E-02    0.193824E-01    0.925595E-02    0.101264E-01
    100.00    0.149069E-02    0.189921E-01    0.735864E-02    0.116335E-01
     80.00    0.113162E-02    0.186331E-01    0.556743E-02    0.130656E-01
     60.00    0.806408E-03    0.183079E-01    0.389580E-02    0.144121E-01
     40.00    0.515735E-03    0.180172E-01    0.236216E-02    0.156550E-01
     20.00    0.253465E-03    0.177549E-01    0.999436E-03    0.167555E-01
     10.00    0.126676E-03    0.176281E-01    0.411456E-03    0.172167E-01 (used)
   ------------------------------------------------------------------------

         :::::::::::::::::::::::::::::::::::::::::::::::::::::
         ::                  THERMODYNAMIC                  ::
         :::::::::::::::::::::::::::::::::::::::::::::::::::::
         :: total free energy         -11.140760661663 Eh   ::
         ::.................................................::
         :: total energy              -11.157977331671 Eh   ::
         :: zero point energy           0.017501450379 Eh   ::
         :: G(RRHO) w/o ZPVE           -0.000284780371 Eh   ::
         :: G(RRHO) contrib.            0.017216670008 Eh   ::
         :::::::::::::::::::::::::::::::::::::::::::::::::::::

           -------------------------------------------------
          | TOTAL ENERGY              -11.157977331671 Eh   |
          | TOTAL ENTHALPY            -11.140349205253 Eh   |
          | TOTAL FREE ENERGY         -11.140760661663 Eh   |
          | GRADIENT NORM               0.000731641457 Eh/Î± |
          | HOMO-LUMO GAP               0.000011280904 eV   |
           -------------------------------------------------

 * finished run on 2020/05/12 at 11:44:03.533
