   * xtb version 6.2.2 (9d81278992624c895f80dd42a50cac0aa55982e2) compiled by '@Darwin' on 04/03/2020
          program call               : xtb --input C3N1_2_S_3.input C3N1_2_S_3.xyz --ohess --molden --namespace C3N1_2_S_3 output.out
          number of atoms            :                     4
          number of electrons        :                    17
          charge                     :                     0
          spin                       :                   1.5

   ID    Z sym.   atoms
    1    6 C      1-3
    2    7 N      4

          :  Hamiltonian                  GFN2-xTB          :
 * total energy  :    -8.8130624 Eh     change        0.3192486E-09 Eh
 * total energy  :    -8.9054259 Eh     change       -0.9236348E-01 Eh
 * total energy  :    -8.9093458 Eh     change       -0.3919917E-02 Eh
 * total energy  :    -8.9283152 Eh     change       -0.1896933E-01 Eh
 * total energy  :    -8.9300768 Eh     change       -0.1761613E-02 Eh
 * total energy  :    -8.9367517 Eh     change       -0.6674970E-02 Eh
 * total energy  :    -8.9366922 Eh     change        0.5958540E-04 Eh
 * total energy  :    -8.9395404 Eh     change       -0.2848286E-02 Eh
 * total energy  :    -8.9401209 Eh     change       -0.5804482E-03 Eh
 * total energy  :    -8.9398560 Eh     change        0.2648897E-03 Eh
 * total energy  :    -8.9413992 Eh     change       -0.4094234E-04 Eh
 * total energy  :    -8.9414113 Eh     change       -0.1213187E-04 Eh
 * total energy  :    -8.9414173 Eh     change       -0.5989069E-05 Eh
 * total energy  :    -8.9414188 Eh     change       -0.1497319E-05 Eh
 * total energy  :    -8.9414218 Eh     change       -0.3070717E-05 Eh
 * total energy  :    -8.9414314 Eh     change       -0.9524634E-05 Eh
 * total energy  :    -8.9414417 Eh     change       -0.1029415E-04 Eh
 * total energy  :    -8.9414516 Eh     change       -0.9990449E-05 Eh
 * total energy  :    -8.9414535 Eh     change       -0.1855016E-05 Eh
   *** GEOMETRY OPTIMIZATION CONVERGED AFTER 24 ITERATIONS ***

 final structure:
================
4
 xtb: 6.2.2 (9d81278992624c895f80dd42a50cac0aa55982e2)
C         1.87492807316388   -0.01271185670670    0.08767843350240
C         0.60424397570764    0.08961799525111   -0.22446154921574
C        -0.64574700744998   -0.07199038235682    0.16599603797420
N        -1.83342604142153   -0.00491575618760   -0.02921192226085

          :  Hamiltonian                  GFN2-xTB          :
         :: gradient norm              0.000231815219 Eh/a0 ::
         :: HOMO-LUMO gap              0.222772702052 eV    ::
         :: SCC energy                -9.116282996529 Eh    ::
         :: -> dispersion             -0.001736352101 Eh    ::
         :: repulsion energy           0.174829582489 Eh    ::

    * Orbital Energies and Occupations

         #    Occupation            Energy/Eh            Energy/eV
      -------------------------------------------------------------
         1        2.0000           -0.6940689             -18.8866
         2        2.0000           -0.6811966             -18.5363
         3        2.0000           -0.6289996             -17.1160
         4        2.0000           -0.5472172             -14.8905
         5        2.0000           -0.5412362             -14.7278
         6        2.0000           -0.4902774             -13.3411
         7        1.9295           -0.4796123             -13.0509
         8        1.0705           -0.4747106             -12.9175
         9        1.0000           -0.4435904             -12.0707
        10        0.9867           -0.3388207              -9.2198 (HOMO)
        11        0.0133           -0.3306339              -8.9970 (LUMO)
        12                         -0.2002256              -5.4484
        13                         -0.1694852              -4.6119
        14                          0.1892975               5.1510
        15                          0.6490499              17.6615
        16                          0.9615538              26.1652
      -------------------------------------------------------------
                  HL-Gap            0.0081868 Eh            0.2228 eV

     #   Z        covCN         q      C6AA      Î±(0)
     1   6 C      0.983    -0.064    37.923    10.345
     2   6 C      1.964     0.072    29.253     8.734
     3   6 C      1.894     0.117    28.239     8.582
     4   7 N      0.913    -0.125    23.702     7.040

Wiberg/Mayer (AO) data.
largest (>0.10) Wiberg bond orders for each atom
          total WBO             WBO to atom ...

molecular dipole:
                 x           y           z       tot (Debye)
 q only:        0.146      -0.001       0.002
   full:        0.282       0.012      -0.033       0.722

 projected vibrational frequencies (cm-1)
eigval :       -0.00    -0.00    -0.00    -0.00    -0.00     0.00
eigval :       82.42   240.44   369.01  1002.51  1462.24  1887.62

   temp. (K)  partition function   enthalpy   heat capacity  entropy
                                   cal/mol     cal/K/mol   cal/K/mol   J/K/mol
  10.00  VIB   1.00                    0.002      0.002     -0.042
         ROT   50.7                   29.809      2.981     10.782
         INT   50.7                   29.811      2.983     10.740
         TR   0.210E+25               49.681      4.968     20.778
         TOT                          79.4921     7.9510    31.5183   131.8726

       T/K    H(0)-H(T)+PV         H(T)/Eh          T*S/Eh         G(T)/Eh
   ------------------------------------------------------------------------
    298.15    0.542971E-02    0.169214E-01    0.310122E-01   -0.140909E-01
    120.00    0.182818E-02    0.133198E-01    0.103245E-01    0.299535E-02
    100.00    0.147588E-02    0.129675E-01    0.828566E-02    0.468187E-02
     80.00    0.114067E-02    0.126323E-01    0.633213E-02    0.630019E-02
     60.00    0.824149E-03    0.123158E-01    0.447821E-02    0.783759E-02
     40.00    0.527323E-03    0.120190E-01    0.274610E-02    0.927287E-02
     20.00    0.254354E-03    0.117460E-01    0.118380E-02    0.105622E-01
     10.00    0.126679E-03    0.116183E-01    0.502276E-03    0.111161E-01 (used)
   ------------------------------------------------------------------------

         :::::::::::::::::::::::::::::::::::::::::::::::::::::
         ::                  THERMODYNAMIC                  ::
         :::::::::::::::::::::::::::::::::::::::::::::::::::::
         :: total free energy          -8.930337451996 Eh   ::
         ::.................................................::
         :: total energy               -8.941453502673 Eh   ::
         :: zero point energy           0.011491648237 Eh   ::
         :: G(RRHO) w/o ZPVE           -0.000375597561 Eh   ::
         :: G(RRHO) contrib.            0.011116050676 Eh   ::
         :::::::::::::::::::::::::::::::::::::::::::::::::::::

           -------------------------------------------------
          | TOTAL ENERGY               -8.941453502673 Eh   |
          | TOTAL ENTHALPY             -8.929835175762 Eh   |
          | TOTAL FREE ENERGY          -8.930337451996 Eh   |
          | GRADIENT NORM               0.000231871935 Eh/Î± |
          | HOMO-LUMO GAP               0.222772892190 eV   |
           -------------------------------------------------

 * finished run on 2020/05/12 at 11:45:04.562
