   * xtb version 6.2.2 (9d81278992624c895f80dd42a50cac0aa55982e2) compiled by '@Darwin' on 04/03/2020
          program call               : xtb --input C3O1_4_S_0.input C3O1_4_S_0.xyz --ohess --molden --namespace C3O1_4_S_0 output.out
          number of atoms            :                     4
          number of electrons        :                    18
          charge                     :                     0
          spin                       :                   0.0

   ID    Z sym.   atoms
    1    8 O      1
    2    6 C      2-4

          :  Hamiltonian                  GFN2-xTB          :
 * total energy  :   -10.0623480 Eh     change        0.1439002E-08 Eh
 * total energy  :   -10.1618687 Eh     change       -0.9952069E-01 Eh
 * total energy  :   -10.1712161 Eh     change       -0.9347470E-02 Eh
 * total energy  :   -10.2158714 Eh     change       -0.4465528E-01 Eh
 * total energy  :   -10.2207160 Eh     change       -0.4844591E-02 Eh
 * total energy  :   -10.2238577 Eh     change       -0.3141676E-02 Eh
 * total energy  :   -10.2240589 Eh     change       -0.2012393E-03 Eh
 * total energy  :   -10.2241026 Eh     change       -0.4365479E-04 Eh
 * total energy  :   -10.2201302 Eh     change        0.3972359E-02 Eh
 * total energy  :   -10.2252011 Eh     change       -0.5070881E-02 Eh
 * total energy  :   -10.3116282 Eh     change       -0.9377778E-03 Eh
 * total energy  :   -10.3119335 Eh     change       -0.3052872E-03 Eh
 * total energy  :   -10.3121407 Eh     change       -0.2072050E-03 Eh
 * total energy  :   -10.3122402 Eh     change       -0.9949242E-04 Eh
 * total energy  :   -10.3122861 Eh     change       -0.4591105E-04 Eh
 * total energy  :   -10.3123279 Eh     change       -0.4178065E-04 Eh
 * total energy  :   -10.3123509 Eh     change       -0.2294897E-04 Eh
 * total energy  :   -10.3123596 Eh     change       -0.8748901E-05 Eh
 * total energy  :   -10.3123618 Eh     change       -0.2168979E-05 Eh
   *** GEOMETRY OPTIMIZATION CONVERGED AFTER 34 ITERATIONS ***

 final structure:
================
4
 xtb: 6.2.2 (9d81278992624c895f80dd42a50cac0aa55982e2)
O         1.78626419257991    0.34839486192753    0.11134225932515
C         0.66324463505324    0.13140025060044    0.04231572455243
C        -1.84197358403978   -0.36154204591674   -0.11589365184164
C        -0.60753524359339   -0.11825306661124   -0.03776433203605

          :  Hamiltonian                  GFN2-xTB          :
         :: gradient norm              0.000750287730 Eh/a0 ::
         :: HOMO-LUMO gap              2.742847328383 eV    ::
         :: SCC energy               -10.509567199521 Eh    ::
         :: -> dispersion             -0.001626950598 Eh    ::
         :: repulsion energy           0.197205499046 Eh    ::

    * Orbital Energies and Occupations

         #    Occupation            Energy/Eh            Energy/eV
      -------------------------------------------------------------
         1        2.0000           -0.8086562             -22.0047
         2        2.0000           -0.6968834             -18.9632
         3        2.0000           -0.6494242             -17.6717
         4        2.0000           -0.6345525             -17.2671
         5        2.0000           -0.6345523             -17.2670
         6        2.0000           -0.6043370             -16.4448
         7        2.0000           -0.4673126             -12.7162
         8        2.0000           -0.4673125             -12.7162
         9        2.0000           -0.4337713             -11.8035 (HOMO)
        10                         -0.3329737              -9.0607 (LUMO)
        11                         -0.3329733              -9.0607
        12                         -0.1352897              -3.6814
        13                         -0.1352878              -3.6814
        14                          0.1552819               4.2254
        15                          0.7708715              20.9765
        16                          1.3853415              37.6971
      -------------------------------------------------------------
                  HL-Gap            0.1007976 Eh            2.7428 eV

     #   Z        covCN         q      C6AA      Î±(0)
     1   8 O      0.856    -0.141    17.129     5.549
     2   6 C      1.838     0.296    24.453     7.989
     3   6 C      0.982    -0.121    39.832    10.601
     4   6 C      1.962    -0.034    31.982     9.133

Wiberg/Mayer (AO) data.
largest (>0.10) Wiberg bond orders for each atom
          total WBO             WBO to atom ...

molecular dipole:
                 x           y           z       tot (Debye)
 q only:        0.358       0.071       0.023
   full:        0.858       0.171       0.055       2.228

   temp. (K)  partition function   enthalpy   heat capacity  entropy
                                   cal/mol     cal/K/mol   cal/K/mol   J/K/mol
  10.00  VIB   1.00                    0.000      0.000     -0.014
         ROT   43.2                   19.873      1.987      9.471
         INT   43.2                   19.873      1.987      9.457
         TR   0.223E+25               49.681      4.968     20.895
         TOT                          69.5541     6.9554    30.3523   126.9939

       T/K    H(0)-H(T)+PV         H(T)/Eh          T*S/Eh         G(T)/Eh
   ------------------------------------------------------------------------
    298.15    0.490836E-02    0.202884E-01    0.284246E-01   -0.813616E-02
    120.00    0.155280E-02    0.169329E-01    0.943046E-02    0.750240E-02
    100.00    0.124458E-02    0.166246E-01    0.757814E-02    0.904650E-02
     80.00    0.954900E-03    0.163350E-01    0.580437E-02    0.105306E-01
     60.00    0.687662E-03    0.160677E-01    0.412312E-02    0.119446E-01
     40.00    0.445977E-03    0.158260E-01    0.255327E-02    0.132728E-01
     20.00    0.221687E-03    0.156017E-01    0.112127E-02    0.144805E-01
     10.00    0.110842E-03    0.154909E-01    0.483694E-03    0.150072E-01 (used)
   ------------------------------------------------------------------------

         :::::::::::::::::::::::::::::::::::::::::::::::::::::
         ::                  THERMODYNAMIC                  ::
         :::::::::::::::::::::::::::::::::::::::::::::::::::::
         :: total free energy         -10.297354574142 Eh   ::
         ::.................................................::
         :: total energy              -10.312361783095 Eh   ::
         :: zero point energy           0.015380061792 Eh   ::
         :: G(RRHO) w/o ZPVE           -0.000372852839 Eh   ::
         :: G(RRHO) contrib.            0.015007208953 Eh   ::
         :::::::::::::::::::::::::::::::::::::::::::::::::::::

           -------------------------------------------------
          | TOTAL ENERGY              -10.312361783095 Eh   |
          | TOTAL ENTHALPY            -10.296870879790 Eh   |
          | TOTAL FREE ENERGY         -10.297354574142 Eh   |
          | GRADIENT NORM               0.000750212977 Eh/Î± |
          | HOMO-LUMO GAP               2.742843157143 eV   |
           -------------------------------------------------

 * finished run on 2020/05/12 at 11:45:18.932
