   * xtb version 6.2.2 (9d81278992624c895f80dd42a50cac0aa55982e2) compiled by '@Darwin' on 04/03/2020
          program call               : xtb --input H2C3_4_S_0.input H2C3_4_S_0.xyz --ohess --molden --namespace H2C3_4_S_0 output.out
          number of atoms            :                     5
          number of electrons        :                    14
          charge                     :                     0
          spin                       :                   0.0

   ID    Z sym.   atoms
    1    6 C      1-3
    2    1 H      4, 5

          :  Hamiltonian                  GFN2-xTB          :
 * total energy  :    -7.0986071 Eh     change        0.6411485E-09 Eh
 * total energy  :    -7.1039945 Eh     change       -0.5387432E-02 Eh
 * total energy  :    -7.1058040 Eh     change       -0.1809496E-02 Eh
 * total energy  :    -7.1059633 Eh     change       -0.1592880E-03 Eh
 * total energy  :    -7.1059806 Eh     change       -0.1734980E-04 Eh
 * total energy  :    -7.1060047 Eh     change       -0.2408438E-04 Eh
 * total energy  :    -7.1061616 Eh     change       -0.1568710E-03 Eh
 * total energy  :    -7.1071778 Eh     change       -0.1016184E-02 Eh
 * total energy  :    -7.1109117 Eh     change       -0.3733943E-02 Eh
 * total energy  :    -7.1157611 Eh     change       -0.4849332E-02 Eh
 * total energy  :    -7.1373416 Eh     change       -0.1302793E-02 Eh
 * total energy  :    -7.1378995 Eh     change       -0.5578944E-03 Eh
 * total energy  :    -7.1382372 Eh     change       -0.3377156E-03 Eh
 * total energy  :    -7.1384854 Eh     change       -0.2481327E-03 Eh
 * total energy  :    -7.1385944 Eh     change       -0.1090190E-03 Eh
 * total energy  :    -7.1386249 Eh     change       -0.3050780E-04 Eh
 * total energy  :    -7.1386343 Eh     change       -0.9438148E-05 Eh
 * total energy  :    -7.1386402 Eh     change       -0.5859980E-05 Eh
 * total energy  :    -7.1386403 Eh     change       -0.9314933E-07 Eh
   *** GEOMETRY OPTIMIZATION CONVERGED AFTER 22 ITERATIONS ***

 final structure:
================
5
 xtb: 6.2.2 (9d81278992624c895f80dd42a50cac0aa55982e2)
C        -0.26689144361614    0.00032446441823   -0.00436127215492
C         1.05386913310823    0.62725542611780   -0.26999133733019
C         1.04301434235608   -0.63025508573669    0.30314410011830
H        -0.92190845990563   -0.80150785676269    0.35090048134947
H        -0.90808357194254    0.80418305196334   -0.37969197198265

          :  Hamiltonian                  GFN2-xTB          :
         :: gradient norm              0.000047466878 Eh/a0 ::
         :: HOMO-LUMO gap              1.891279507147 eV    ::
         :: SCC energy                -7.242476053270 Eh    ::
         :: -> dispersion             -0.001464365344 Eh    ::
         :: repulsion energy           0.103835747901 Eh    ::

    * Orbital Energies and Occupations

         #    Occupation            Energy/Eh            Energy/eV
      -------------------------------------------------------------
         1        2.0000           -0.6820000             -18.5582
         2        2.0000           -0.6052521             -16.4697
         3        2.0000           -0.5700703             -15.5124
         4        2.0000           -0.4796508             -13.0520
         5        2.0000           -0.4719760             -12.8431
         6        2.0000           -0.4474483             -12.1757
         7        2.0000           -0.3694849             -10.0542 (HOMO)
         8                         -0.2999817              -8.1629 (LUMO)
         9                         -0.2347431              -6.3877
        10                         -0.2046699              -5.5694
        11                          0.0564115               1.5350
        12                          0.1994063               5.4261
        13                          0.2982348               8.1154
        14                          0.5022834              13.6678
      -------------------------------------------------------------
                  HL-Gap            0.0695032 Eh            1.8913 eV

     #   Z        covCN         q      C6AA      Î±(0)
     1   6 C      3.803     0.040    19.907     6.352
     2   6 C      1.958    -0.137    34.917     9.543
     3   6 C      1.958    -0.137    34.917     9.543
     4   1 H      0.924     0.117     1.640     2.003
     5   1 H      0.924     0.117     1.640     2.003

Wiberg/Mayer (AO) data.
largest (>0.10) Wiberg bond orders for each atom
          total WBO             WBO to atom ...

molecular dipole:
                 x           y           z       tot (Debye)
 q only:       -0.965       0.001      -0.015
   full:       -1.478       0.002      -0.023       3.757

 projected vibrational frequencies (cm-1)
eigval :       -0.00    -0.00    -0.00     0.00     0.00     0.00
eigval :      236.27   311.62   868.20   879.35  1046.83  1291.25
eigval :     1535.01  2848.88  2903.36

   temp. (K)  partition function   enthalpy   heat capacity  entropy
                                   cal/mol     cal/K/mol   cal/K/mol   J/K/mol
  10.00  VIB   1.00                    0.000      0.000     -0.004
         ROT   20.3                   29.809      2.981      8.962
         INT   20.3                   29.809      2.981      8.958
         TR   0.139E+25               49.681      4.968     19.962
         TOT                          79.4904     7.9490    28.9206   121.0040

       T/K    H(0)-H(T)+PV         H(T)/Eh          T*S/Eh         G(T)/Eh
   ------------------------------------------------------------------------
    298.15    0.485457E-02    0.320121E-01    0.282773E-01    0.373480E-02
    120.00    0.162235E-02    0.287799E-01    0.944228E-02    0.193376E-01
    100.00    0.132020E-02    0.284777E-01    0.759340E-02    0.208843E-01
     80.00    0.103425E-02    0.281918E-01    0.581980E-02    0.223720E-01
     60.00    0.764605E-03    0.279221E-01    0.413247E-02    0.237897E-01
     40.00    0.506943E-03    0.276645E-01    0.254625E-02    0.251182E-01
     20.00    0.253352E-03    0.274109E-01    0.109738E-02    0.263135E-01
     10.00    0.126676E-03    0.272842E-01    0.460880E-03    0.268233E-01 (used)
   ------------------------------------------------------------------------

         :::::::::::::::::::::::::::::::::::::::::::::::::::::
         ::                  THERMODYNAMIC                  ::
         :::::::::::::::::::::::::::::::::::::::::::::::::::::
         :: total free energy          -7.111816971580 Eh   ::
         ::.................................................::
         :: total energy               -7.138640289150 Eh   ::
         :: zero point energy           0.027157521431 Eh   ::
         :: G(RRHO) w/o ZPVE           -0.000334203862 Eh   ::
         :: G(RRHO) contrib.            0.026823317570 Eh   ::
         :::::::::::::::::::::::::::::::::::::::::::::::::::::

           -------------------------------------------------
          | TOTAL ENERGY               -7.138640289150 Eh   |
          | TOTAL ENTHALPY             -7.111356091703 Eh   |
          | TOTAL FREE ENERGY          -7.111816971580 Eh   |
          | GRADIENT NORM               0.000047457438 Eh/Î± |
          | HOMO-LUMO GAP               1.891279262262 eV   |
           -------------------------------------------------

 * finished run on 2020/05/12 at 11:44:27.002
