   * xtb version 6.2.2 (9d81278992624c895f80dd42a50cac0aa55982e2) compiled by '@Darwin' on 04/03/2020
          program call               : xtb --input C5_8_S_0.input C5_8_S_0.xyz --ohess --molden --namespace C5_8_S_0 output.out
          number of atoms            :                     5
          number of electrons        :                    20
          charge                     :                     0
          spin                       :                   0.0

   ID    Z sym.   atoms
    1    6 C      1-5

          :  Hamiltonian                  GFN2-xTB          :
 * total energy  :   -10.0970216 Eh     change        0.1023894E-08 Eh
 * total energy  :   -10.1745405 Eh     change       -0.7751891E-01 Eh
 * total energy  :   -10.2063227 Eh     change       -0.3178213E-01 Eh
 * total energy  :   -10.2187207 Eh     change       -0.1239807E-01 Eh
 * total energy  :   -10.2225857 Eh     change       -0.3864971E-02 Eh
 * total energy  :   -10.2251576 Eh     change       -0.2571937E-02 Eh
 * total energy  :   -10.2267355 Eh     change       -0.1577839E-02 Eh
 * total energy  :   -10.2276017 Eh     change       -0.8662391E-03 Eh
 * total energy  :   -10.2278850 Eh     change       -0.2832498E-03 Eh
 * total energy  :   -10.2279585 Eh     change       -0.7353354E-04 Eh
 * total energy  :   -10.2280258 Eh     change       -0.6731711E-04 Eh
 * total energy  :   -10.2280420 Eh     change       -0.1615971E-04 Eh
 * total energy  :   -10.2280446 Eh     change       -0.2618863E-05 Eh
   *** GEOMETRY OPTIMIZATION CONVERGED AFTER 13 ITERATIONS ***

 final structure:
================
5
 xtb: 6.2.2 (9d81278992624c895f80dd42a50cac0aa55982e2)
C         1.78005027094554   -0.20910301087438   -0.04602495636882
C         0.52052578747585   -0.06088661827413    0.00082675621480
C        -1.11412488864176    0.13825864540412    0.44094505286929
C        -0.46997830764919    1.11925018354692   -0.21674409140191
C        -0.71647286213044   -0.98751919980254   -0.17900376131336

          :  Hamiltonian                  GFN2-xTB          :
         :: gradient norm              0.000295421878 Eh/a0 ::
         :: HOMO-LUMO gap              1.996595562263 eV    ::
         :: SCC energy               -10.417070301504 Eh    ::
         :: -> dispersion             -0.002878355895 Eh    ::
         :: repulsion energy           0.189025631890 Eh    ::

    * Orbital Energies and Occupations

         #    Occupation            Energy/Eh            Energy/eV
      -------------------------------------------------------------
         1        2.0000           -0.7519202             -20.4608
         2        2.0000           -0.6911797             -18.8080
         3        2.0000           -0.6643943             -18.0791
         4        2.0000           -0.5929064             -16.1338
         5        2.0000           -0.5729350             -15.5904
         6        2.0000           -0.5451351             -14.8339
         7        2.0000           -0.4969829             -13.5236
         8        2.0000           -0.4725203             -12.8579
         9        2.0000           -0.4676818             -12.7263
        10        2.0000           -0.4535414             -12.3415 (HOMO)
        11                         -0.3801675             -10.3449 (LUMO)
        12                         -0.3578272              -9.7370
        13                         -0.3551819              -9.6650
        14                         -0.2608128              -7.0971
        15                         -0.2161457              -5.8816
        16                         -0.0108470              -0.2952
        17                         -0.0039276              -0.1069
        18                          0.3544305               9.6445
        19                          0.4811041              13.0915
        20                          0.7341370              19.9769
      -------------------------------------------------------------
                  HL-Gap            0.0733738 Eh            1.9966 eV

     #   Z        covCN         q      C6AA      Î±(0)
     1   6 C      0.982    -0.106    39.301    10.530
     2   6 C      3.848     0.148    18.179     6.065
     3   6 C      2.885     0.097    25.838     8.333
     4   6 C      2.208    -0.070    32.263     9.193
     5   6 C      2.208    -0.070    32.263     9.193

Wiberg/Mayer (AO) data.
largest (>0.10) Wiberg bond orders for each atom
          total WBO             WBO to atom ...

molecular dipole:
                 x           y           z       tot (Debye)
 q only:       -0.260       0.033       0.143
   full:       -0.688       0.090       0.511       2.191

 projected vibrational frequencies (cm-1)
eigval :       -0.00    -0.00    -0.00     0.00     0.00     0.00
eigval :      236.72   318.55   403.75   519.41   610.59   721.49
eigval :     1429.20  1475.57  1771.86

   temp. (K)  partition function   enthalpy   heat capacity  entropy
                                   cal/mol     cal/K/mol   cal/K/mol   J/K/mol
  10.00  VIB   1.00                    0.000      0.000     -0.005
         ROT   206.                   29.809      2.981     13.567
         INT   206.                   29.809      2.981     13.562
         TR   0.277E+25               49.681      4.968     21.322
         TOT                          79.4904     7.9490    34.8840   145.9546

       T/K    H(0)-H(T)+PV         H(T)/Eh          T*S/Eh         G(T)/Eh
   ------------------------------------------------------------------------
    298.15    0.546776E-02    0.225247E-01    0.319857E-01   -0.946101E-02
    120.00    0.164148E-02    0.186984E-01    0.106051E-01    0.809329E-02
    100.00    0.132617E-02    0.183831E-01    0.855058E-02    0.983254E-02
     80.00    0.103519E-02    0.180921E-01    0.658114E-02    0.115110E-01
     60.00    0.764589E-03    0.178215E-01    0.470268E-02    0.131189E-01
     40.00    0.506937E-03    0.175639E-01    0.292639E-02    0.146375E-01
     20.00    0.253352E-03    0.173103E-01    0.128745E-02    0.160228E-01
     10.00    0.126676E-03    0.171836E-01    0.555912E-03    0.166277E-01 (used)
   ------------------------------------------------------------------------

         :::::::::::::::::::::::::::::::::::::::::::::::::::::
         ::                  THERMODYNAMIC                  ::
         :::::::::::::::::::::::::::::::::::::::::::::::::::::
         :: total free energy         -10.211416888969 Eh   ::
         ::.................................................::
         :: total energy              -10.228044596768 Eh   ::
         :: zero point energy           0.017056943582 Eh   ::
         :: G(RRHO) w/o ZPVE           -0.000429235784 Eh   ::
         :: G(RRHO) contrib.            0.016627707798 Eh   ::
         :::::::::::::::::::::::::::::::::::::::::::::::::::::

           -------------------------------------------------
          | TOTAL ENERGY              -10.228044596768 Eh   |
          | TOTAL ENTHALPY            -10.210860977170 Eh   |
          | TOTAL FREE ENERGY         -10.211416888969 Eh   |
          | GRADIENT NORM               0.000295692813 Eh/Î± |
          | HOMO-LUMO GAP               1.996603497308 eV   |
           -------------------------------------------------

 * finished run on 2020/05/12 at 11:44:34.805
