   * xtb version 6.2.2 (9d81278992624c895f80dd42a50cac0aa55982e2) compiled by '@Darwin' on 04/03/2020
          program call               : xtb --input C3N1_5_S_1.input C3N1_5_S_1.xyz --ohess --molden --namespace C3N1_5_S_1 output.out
          number of atoms            :                     4
          number of electrons        :                    17
          charge                     :                     0
          spin                       :                   0.5

   ID    Z sym.   atoms
    1    6 C      1, 3, 4
    2    7 N      2

          :  Hamiltonian                  GFN2-xTB          :
 * total energy  :    -8.8564496 Eh     change        0.1867058E-09 Eh
 * total energy  :    -8.8946237 Eh     change       -0.3817416E-01 Eh
 * total energy  :    -7.3521461 Eh     change        0.1542478E+01 Eh
 * total energy  :    -8.8981427 Eh     change       -0.1545997E+01 Eh
 * total energy  :    -8.9263713 Eh     change       -0.2822861E-01 Eh
 * total energy  :    -8.9520253 Eh     change       -0.2565407E-01 Eh
 * total energy  :    -8.9649461 Eh     change       -0.1292076E-01 Eh
 * total energy  :    -8.9719330 Eh     change       -0.6986870E-02 Eh
 * total energy  :    -8.9872422 Eh     change       -0.1530925E-01 Eh
 * total energy  :    -8.9894894 Eh     change       -0.2247195E-02 Eh
 * total energy  :    -8.9905513 Eh     change       -0.1061920E-02 Eh
 * total energy  :    -8.9915449 Eh     change       -0.9935626E-03 Eh
 * total energy  :    -8.9923431 Eh     change       -0.7982425E-03 Eh
 * total energy  :    -8.9930794 Eh     change       -0.7362930E-03 Eh
 * total energy  :    -8.9932709 Eh     change       -0.1914782E-03 Eh
 * total energy  :    -8.9933167 Eh     change       -0.4578987E-04 Eh
 * total energy  :    -8.9933268 Eh     change       -0.1014558E-04 Eh
 * total energy  :    -8.9933274 Eh     change       -0.6002968E-06 Eh
   *** GEOMETRY OPTIMIZATION CONVERGED AFTER 18 ITERATIONS ***

 final structure:
================
4
 xtb: 6.2.2 (9d81278992624c895f80dd42a50cac0aa55982e2)
C         1.56771430790891   -0.01208502917705    0.03975850961642
N         0.39067245534502   -0.00313735099813    0.01053466525284
C        -0.97481857127211    0.64439500260323   -0.01093744734499
C        -0.98356719198182   -0.62917262242805   -0.03935572752427

          :  Hamiltonian                  GFN2-xTB          :
         :: gradient norm              0.000232890758 Eh/a0 ::
         :: HOMO-LUMO gap              2.142495993601 eV    ::
         :: SCC energy                -9.159303306715 Eh    ::
         :: -> dispersion             -0.001844706087 Eh    ::
         :: repulsion energy           0.165975858796 Eh    ::

    * Orbital Energies and Occupations

         #    Occupation            Energy/Eh            Energy/eV
      -------------------------------------------------------------
         1        2.0000           -0.7386243             -20.0990
         2        2.0000           -0.7060949             -19.2138
         3        2.0000           -0.6061770             -16.4949
         4        2.0000           -0.5885799             -16.0161
         5        2.0000           -0.5843752             -15.9017
         6        2.0000           -0.4928519             -13.4112
         7        2.0000           -0.4803187             -13.0701
         8        2.0000           -0.4589615             -12.4890
         9        1.0000           -0.4104067             -11.1677 (HOMO)
        10                         -0.3316715              -9.0252 (LUMO)
        11                         -0.2611977              -7.1076
        12                         -0.2576281              -7.0104
        13                         -0.1172162              -3.1896
        14                         -0.0807125              -2.1963
        15                          0.6366995              17.3255
        16                          0.8210606              22.3422
      -------------------------------------------------------------
                  HL-Gap            0.0787352 Eh            2.1425 eV

     #   Z        covCN         q      C6AA      Î±(0)
     1   6 C      0.911    -0.104    38.735    10.416
     2   7 N      2.715     0.143    18.819     6.443
     3   6 C      1.884    -0.019    31.640     9.085
     4   6 C      1.884    -0.019    31.636     9.084

Wiberg/Mayer (AO) data.
largest (>0.10) Wiberg bond orders for each atom
          total WBO             WBO to atom ...

molecular dipole:
                 x           y           z       tot (Debye)
Molecule has the following symmetry elements: (C2) 2*(sigma)
It seems to be the C2v point group
 q only:       -0.132       0.001      -0.003
   full:       -0.267       0.002      -0.007       0.678

 projected vibrational frequencies (cm-1)
eigval :       -0.00    -0.00    -0.00    -0.00    -0.00     0.00
eigval :     -142.16   348.64   394.87   752.39  1804.90  2055.16

   temp. (K)  partition function   enthalpy   heat capacity  entropy
                                   cal/mol     cal/K/mol   cal/K/mol   J/K/mol
  10.00  VIB   1.00                    0.000      0.000     -0.001
         ROT   43.5                   29.809      2.981     10.478
         INT   43.5                   29.809      2.981     10.477
         TR   0.210E+25               49.681      4.968     20.778
         TOT                          79.4904     7.9490    31.2554   130.7728

       T/K    H(0)-H(T)+PV         H(T)/Eh          T*S/Eh         G(T)/Eh
   ------------------------------------------------------------------------
    298.15    0.454916E-02    0.167509E-01    0.288139E-01   -0.120630E-01
    120.00    0.156116E-02    0.137629E-01    0.980384E-02    0.395908E-02
    100.00    0.128359E-02    0.134854E-01    0.791707E-02    0.556828E-02
     80.00    0.101791E-02    0.132197E-01    0.609675E-02    0.712292E-02
     60.00    0.760567E-03    0.129623E-01    0.435063E-02    0.861170E-02
     40.00    0.506711E-03    0.127085E-01    0.269464E-02    0.100138E-01
     20.00    0.253352E-03    0.124551E-01    0.117175E-02    0.112834E-01
     10.00    0.126676E-03    0.123284E-01    0.498087E-03    0.118304E-01 (used)
   ------------------------------------------------------------------------

         :::::::::::::::::::::::::::::::::::::::::::::::::::::
         ::                  THERMODYNAMIC                  ::
         :::::::::::::::::::::::::::::::::::::::::::::::::::::
         :: total free energy          -8.981497089022 Eh   ::
         ::.................................................::
         :: total energy               -8.993327442512 Eh   ::
         :: zero point energy           0.012201764655 Eh   ::
         :: G(RRHO) w/o ZPVE           -0.000371411165 Eh   ::
         :: G(RRHO) contrib.            0.011830353490 Eh   ::
         :::::::::::::::::::::::::::::::::::::::::::::::::::::

           -------------------------------------------------
          | TOTAL ENERGY               -8.993327442512 Eh   |
          | TOTAL ENTHALPY             -8.980999001842 Eh   |
          | TOTAL FREE ENERGY          -8.981497089022 Eh   |
          | GRADIENT NORM               0.000232844641 Eh/Î± |
          | HOMO-LUMO GAP               2.142493721130 eV   |
           -------------------------------------------------

 * finished run on 2020/05/12 at 11:45:05.443
