   * xtb version 6.2.2 (9d81278992624c895f80dd42a50cac0aa55982e2) compiled by '@Darwin' on 04/03/2020
          program call               : xtb --input C5_17_S_0.input C5_17_S_0.xyz --ohess --molden --namespace C5_17_S_0 output.out
          number of atoms            :                     5
          number of electrons        :                    20
          charge                     :                     0
          spin                       :                   0.0

   ID    Z sym.   atoms
    1    6 C      1-5

          :  Hamiltonian                  GFN2-xTB          :
 * total energy  :   -10.1306623 Eh     change       -0.6368570E-08 Eh
 * total energy  :   -10.1751094 Eh     change       -0.4444710E-01 Eh
 * total energy  :   -10.1140776 Eh     change        0.6103181E-01 Eh
 * total energy  :   -10.2166031 Eh     change       -0.1025255E+00 Eh
 * total energy  :   -10.2177186 Eh     change       -0.1115493E-02 Eh
 * total energy  :   -10.2178667 Eh     change       -0.1481056E-03 Eh
 * total energy  :   -10.2178868 Eh     change       -0.2005068E-04 Eh
 * total energy  :   -10.2178968 Eh     change       -0.1003788E-04 Eh
 * total energy  :   -10.2178973 Eh     change       -0.4776194E-06 Eh
   *** GEOMETRY OPTIMIZATION CONVERGED AFTER 9 ITERATIONS ***

 final structure:
================
5
 xtb: 6.2.2 (9d81278992624c895f80dd42a50cac0aa55982e2)
C        -0.65036290170908   -0.79614640393632    0.03481656258872
C        -0.14863135186133    0.41002598523312    0.98807150343586
C         0.72491731273731    0.59047531427847   -0.36086390848501
C        -0.66936090221173    0.49053246713551   -0.53971116799386
C         0.74343784304484   -0.69488836271078    0.21661601045428

          :  Hamiltonian                  GFN2-xTB          :
         :: gradient norm              0.000532823932 Eh/a0 ::
         :: HOMO-LUMO gap              1.356482650529 eV    ::
         :: SCC energy               -10.367686268285 Eh    ::
         :: -> dispersion             -0.002327522474 Eh    ::
         :: repulsion energy           0.149788985418 Eh    ::

    * Orbital Energies and Occupations

         #    Occupation            Energy/Eh            Energy/eV
      -------------------------------------------------------------
         1        2.0000           -0.7683135             -20.9069
         2        2.0000           -0.6529952             -17.7689
         3        2.0000           -0.6529753             -17.7684
         4        2.0000           -0.6251568             -17.0114
         5        2.0000           -0.5610630             -15.2673
         6        2.0000           -0.5001580             -13.6100
         7        2.0000           -0.4823233             -13.1247
         8        2.0000           -0.4718815             -12.8405
         9        2.0000           -0.4715639             -12.8319
        10        2.0000           -0.4404019             -11.9839 (HOMO)
        11                         -0.3905517             -10.6275 (LUMO)
        12                         -0.3902874             -10.6203
        13                         -0.2119711              -5.7680
        14                         -0.1548456              -4.2136
        15                         -0.1539609              -4.1895
        16                          0.0234425               0.6379
        17                          0.1544527               4.2029
        18                          0.1549317               4.2159
        19                          0.1668461               4.5401
        20                          0.5586968              15.2029
      -------------------------------------------------------------
                  HL-Gap            0.0498502 Eh            1.3565 eV

     #   Z        covCN         q      C6AA      Î±(0)
     1   6 C      3.426     0.037    22.846     7.303
     2   6 C      3.841    -0.149    23.351     6.874
     3   6 C      3.426     0.037    22.846     7.303
     4   6 C      3.425     0.038    22.854     7.308
     5   6 C      3.425     0.038    22.854     7.308

Wiberg/Mayer (AO) data.
largest (>0.10) Wiberg bond orders for each atom
          total WBO             WBO to atom ...

molecular dipole:
                 x           y           z       tot (Debye)
 q only:        0.052      -0.145      -0.325
   full:        0.087      -0.241      -0.540       1.520

 projected vibrational frequencies (cm-1)
eigval :       -0.00    -0.00    -0.00     0.00     0.00     0.00
eigval :     -579.64   520.52   522.11   687.83  1040.55  1173.60
eigval :     1200.46  1200.83  1430.36

   temp. (K)  partition function   enthalpy   heat capacity  entropy
                                   cal/mol     cal/K/mol   cal/K/mol   J/K/mol
  10.00  VIB   1.00                    0.000      0.000     -0.000
         ROT   31.9                   29.809      2.981      9.865
         INT   31.9                   29.809      2.981      9.864
         TR   0.277E+25               49.681      4.968     21.322
         TOT                          79.4904     7.9490    31.1862   130.4830

       T/K    H(0)-H(T)+PV         H(T)/Eh          T*S/Eh         G(T)/Eh
   ------------------------------------------------------------------------
    298.15    0.440222E-02    0.221178E-01    0.284719E-01   -0.635406E-02
    120.00    0.153015E-02    0.192458E-01    0.975169E-02    0.949408E-02
    100.00    0.126955E-02    0.189852E-01    0.788900E-02    0.110962E-01
     80.00    0.101382E-02    0.187294E-01    0.608306E-02    0.126464E-01
     60.00    0.760074E-03    0.184757E-01    0.434338E-02    0.141323E-01
     40.00    0.506704E-03    0.182223E-01    0.269018E-02    0.155321E-01
     20.00    0.253352E-03    0.179690E-01    0.116953E-02    0.167994E-01
     10.00    0.126676E-03    0.178423E-01    0.496984E-03    0.173453E-01 (used)
   ------------------------------------------------------------------------

         :::::::::::::::::::::::::::::::::::::::::::::::::::::
         ::                  THERMODYNAMIC                  ::
         :::::::::::::::::::::::::::::::::::::::::::::::::::::
         :: total free energy         -10.200551954864 Eh   ::
         ::.................................................::
         :: total energy              -10.217897269701 Eh   ::
         :: zero point energy           0.017715622389 Eh   ::
         :: G(RRHO) w/o ZPVE           -0.000370307552 Eh   ::
         :: G(RRHO) contrib.            0.017345314837 Eh   ::
         :::::::::::::::::::::::::::::::::::::::::::::::::::::

           -------------------------------------------------
          | TOTAL ENERGY              -10.217897269701 Eh   |
          | TOTAL ENTHALPY            -10.200054971296 Eh   |
          | TOTAL FREE ENERGY         -10.200551954864 Eh   |
          | GRADIENT NORM               0.000532781099 Eh/Î± |
          | HOMO-LUMO GAP               1.356493658193 eV   |
           -------------------------------------------------

 * finished run on 2020/05/12 at 11:44:38.951
