   * xtb version 6.2.2 (9d81278992624c895f80dd42a50cac0aa55982e2) compiled by '@Darwin' on 04/03/2020
          program call               : xtb --input N1O2_2_S_1.input N1O2_2_S_1.xyz --ohess --molden --namespace N1O2_2_S_1 output.out
          number of atoms            :                     3
          number of electrons        :                    17
          charge                     :                     0
          spin                       :                   0.5

   ID    Z sym.   atoms
    1    7 N      1
    2    8 O      2, 3

          :  Hamiltonian                  GFN2-xTB          :
 * total energy  :   -10.7763634 Eh     change        0.1501022E-11 Eh
 * total energy  :   -10.7885965 Eh     change       -0.1223310E-01 Eh
 * total energy  :   -10.7907128 Eh     change       -0.2116220E-02 Eh
 * total energy  :   -10.7908743 Eh     change       -0.1615922E-03 Eh
 * total energy  :   -10.7908828 Eh     change       -0.8503948E-05 Eh
 * total energy  :   -10.7908839 Eh     change       -0.1071100E-05 Eh
   *** GEOMETRY OPTIMIZATION CONVERGED AFTER 6 ITERATIONS ***

 final structure:
================
3
 xtb: 6.2.2 (9d81278992624c895f80dd42a50cac0aa55982e2)
N        -0.44424692102525   -0.60416115076140    0.00000000000000
O        -0.35086722332446    0.72340705470690   -0.00000000000000
O         0.79511314434970   -0.11924490394549    0.00000000000000

          :  Hamiltonian                  GFN2-xTB          :
         :: gradient norm              0.000349989060 Eh/a0 ::
         :: HOMO-LUMO gap              3.838845488571 eV    ::
         :: SCC energy               -10.803680418934 Eh    ::
         :: -> dispersion             -0.000631637482 Eh    ::
         :: repulsion energy           0.012796500528 Eh    ::

    * Orbital Energies and Occupations

         #    Occupation            Energy/Eh            Energy/eV
      -------------------------------------------------------------
         1        2.0000           -0.8697553             -23.6672
         2        2.0000           -0.7776246             -21.1602
         3        2.0000           -0.7276036             -19.7991
         4        2.0000           -0.6914619             -18.8156
         5        2.0000           -0.6639905             -18.0681
         6        2.0000           -0.6347907             -17.2735
         7        2.0000           -0.5365224             -14.5995
         8        2.0000           -0.5201650             -14.1544
Molecule has the following symmetry elements: (C2) 2*(sigma)
It seems to be the C2v point group
         9        1.0000           -0.4235062             -11.5242 (HOMO)
        10                         -0.2824312              -7.6853 (LUMO)
        11                         -0.1213891              -3.3032
        12                          0.0442151               1.2032
      -------------------------------------------------------------
                  HL-Gap            0.1410750 Eh            3.8388 eV

     #   Z        covCN         q      C6AA      Î±(0)
     1   7 N      1.840     0.102    20.114     6.646
     2   8 O      1.850    -0.051    15.136     5.254
     3   8 O      1.850    -0.051    15.136     5.254

Wiberg/Mayer (AO) data.
largest (>0.10) Wiberg bond orders for each atom
          total WBO             WBO to atom ...

molecular dipole:
                 x           y           z       tot (Debye)
 q only:       -0.129      -0.175       0.000
   full:       -0.038      -0.052       0.000       0.164

 projected vibrational frequencies (cm-1)
eigval :       -0.00    -0.00     0.00     0.00     0.00     0.00
eigval :      889.55  1006.75  1454.08

   temp. (K)  partition function   enthalpy   heat capacity  entropy
                                   cal/mol     cal/K/mol   cal/K/mol   J/K/mol
  10.00  VIB   1.00                    0.000      0.000     -0.000
         ROT   17.7                   29.809      2.981      8.691
         INT   17.7                   29.809      2.981      8.691
         TR   0.185E+25               49.681      4.968     20.528
         TOT                          79.4904     7.9490    29.2190   122.2522

       T/K    H(0)-H(T)+PV         H(T)/Eh          T*S/Eh         G(T)/Eh
   ------------------------------------------------------------------------
    298.15    0.387485E-02    0.115076E-01    0.268206E-01   -0.153131E-01
    120.00    0.152023E-02    0.915296E-02    0.936393E-02   -0.210978E-03
    100.00    0.126677E-02    0.889950E-02    0.757230E-02    0.132720E-02
     80.00    0.101341E-02    0.864613E-02    0.583176E-02    0.281437E-02
     60.00    0.760056E-03    0.839278E-02    0.415523E-02    0.423755E-02
     40.00    0.506704E-03    0.813943E-02    0.256476E-02    0.557466E-02
     20.00    0.253352E-03    0.788608E-02    0.110683E-02    0.677925E-02
     10.00    0.126676E-03    0.775940E-02    0.465634E-03    0.729377E-02 (used)
   ------------------------------------------------------------------------

         :::::::::::::::::::::::::::::::::::::::::::::::::::::
         ::                  THERMODYNAMIC                  ::
         :::::::::::::::::::::::::::::::::::::::::::::::::::::
         :: total free energy         -10.783590152248 Eh   ::
         ::.................................................::
         :: total energy              -10.790883917655 Eh   ::
         :: zero point energy           0.007632723611 Eh   ::
         :: G(RRHO) w/o ZPVE           -0.000338958204 Eh   ::
         :: G(RRHO) contrib.            0.007293765407 Eh   ::
         :::::::::::::::::::::::::::::::::::::::::::::::::::::

           -------------------------------------------------
          | TOTAL ENERGY              -10.790883917655 Eh   |
          | TOTAL ENTHALPY            -10.783124518028 Eh   |
          | TOTAL FREE ENERGY         -10.783590152248 Eh   |
          | GRADIENT NORM               0.000349994686 Eh/Î± |
          | HOMO-LUMO GAP               3.838845268923 eV   |
           -------------------------------------------------

 * finished run on 2020/05/12 at 11:45:16.891
