   * xtb version 6.2.2 (9d81278992624c895f80dd42a50cac0aa55982e2) compiled by '@Darwin' on 04/03/2020
          program call               : xtb --input C4N1_1_S_1.input C4N1_1_S_1.xyz --ohess --molden --namespace C4N1_1_S_1 output.out
          number of atoms            :                     5
          number of electrons        :                    21
          charge                     :                     0
          spin                       :                   0.5

   ID    Z sym.   atoms
    1    6 C      1, 3-5
    2    7 N      2

          :  Hamiltonian                  GFN2-xTB          :
 * total energy  :   -10.7129521 Eh     change       -0.1192983E-08 Eh
 * total energy  :   -10.7334585 Eh     change       -0.2050645E-01 Eh
 * total energy  :   -10.7377334 Eh     change       -0.4274809E-02 Eh
 * total energy  :   -10.7383615 Eh     change       -0.6281332E-03 Eh
 * total energy  :   -10.7383834 Eh     change       -0.2194933E-04 Eh
 * total energy  :   -10.7401792 Eh     change       -0.1795804E-02 Eh
 * total energy  :   -10.7497024 Eh     change       -0.9523118E-02 Eh
 * total energy  :   -10.7931127 Eh     change       -0.4341036E-01 Eh
 * total energy  :   -10.8827352 Eh     change       -0.8962246E-01 Eh
 * total energy  :   -10.9229285 Eh     change       -0.4019334E-01 Eh
 * total energy  :   -11.1233658 Eh     change       -0.2754694E-03 Eh
 * total energy  :   -11.1236028 Eh     change       -0.2369554E-03 Eh
 * total energy  :   -11.1231804 Eh     change        0.4224120E-03 Eh
 * total energy  :   -11.1236698 Eh     change       -0.4894145E-03 Eh
 * total energy  :   -11.1236987 Eh     change       -0.2888033E-04 Eh
 * total energy  :   -11.1237695 Eh     change       -0.7080801E-04 Eh
 * total energy  :   -11.1238062 Eh     change       -0.3666917E-04 Eh
 * total energy  :   -11.1238210 Eh     change       -0.1488079E-04 Eh
 * total energy  :   -11.1238242 Eh     change       -0.3193070E-05 Eh
   *** GEOMETRY OPTIMIZATION CONVERGED AFTER 74 ITERATIONS ***

 final structure:
================
5
 xtb: 6.2.2 (9d81278992624c895f80dd42a50cac0aa55982e2)
C        -0.00180684071669   -0.27422223675060   -1.66516108233774
N        -0.41650067971902    0.08671435926050    0.94022740718447
C         1.21736793479008    0.02857457192824   -1.04262033192046
C        -0.96403074383070    0.16709290860254    1.98011385724322
C         0.16497132947634   -0.00815860304066   -0.21255985016949

          :  Hamiltonian                  GFN2-xTB          :
         :: gradient norm              0.000933458997 Eh/a0 ::
         :: HOMO-LUMO gap              1.790053273224 eV    ::
         :: SCC energy               -11.335460097189 Eh    ::
         :: -> dispersion             -0.002807190095 Eh    ::
         :: repulsion energy           0.211635940584 Eh    ::

    * Orbital Energies and Occupations

         #    Occupation            Energy/Eh            Energy/eV
      -------------------------------------------------------------
         1        2.0000           -0.7286400             -19.8273
         2        2.0000           -0.7180488             -19.5391
         3        2.0000           -0.6770108             -18.4224
         4        2.0000           -0.6067380             -16.5102
         5        2.0000           -0.5854879             -15.9319
         6        2.0000           -0.5449804             -14.8297
         7        2.0000           -0.5274159             -14.3517
         8        2.0000           -0.5046491             -13.7322
         9        2.0000           -0.4772468             -12.9865
        10        2.0000           -0.4318007             -11.7499
        11        1.0000           -0.4088196             -11.1245 (HOMO)
        12                         -0.3430366              -9.3345 (LUMO)
        13                         -0.2880546              -7.8384
        14                         -0.2724190              -7.4129
        15                         -0.1989802              -5.4145
        16                         -0.0332260              -0.9041
        17                          0.0371917               1.0120
        18                          0.3002940               8.1714
        19                          0.5622203              15.2988
        20                          1.0702895              29.1241
      -------------------------------------------------------------
                  HL-Gap            0.0657829 Eh            1.7900 eV

     #   Z        covCN         q      C6AA      Î±(0)
     1   6 C      1.958    -0.114    34.248     9.451
     2   7 N      1.821     0.060    20.845     6.765
     3   6 C      1.961    -0.017    31.515     9.066
     4   6 C      0.916    -0.093    38.385    10.372
     5   6 C      2.875     0.163    24.474     8.110
Molecule has the following symmetry elements: (sigma)
It seems to be the Cs point group

Wiberg/Mayer (AO) data.
largest (>0.10) Wiberg bond orders for each atom
          total WBO             WBO to atom ...

molecular dipole:
                 x           y           z       tot (Debye)
 q only:        0.135       0.036       0.086
   full:        0.377       0.100       0.230       1.152

 projected vibrational frequencies (cm-1)
eigval :       -0.00    -0.00    -0.00     0.00     0.00     0.00
eigval :      185.80   192.04   444.50   488.65   731.50  1011.49
eigval :     1228.76  1811.58  2100.31

   temp. (K)  partition function   enthalpy   heat capacity  entropy
                                   cal/mol     cal/K/mol   cal/K/mol   J/K/mol
  10.00  VIB   1.00                    0.000      0.000     -0.012
         ROT   215.                   29.809      2.981     13.657
         INT   215.                   29.809      2.981     13.645
         TR   0.290E+25               49.681      4.968     21.419
         TOT                          79.4904     7.9490    35.0645   146.7099

       T/K    H(0)-H(T)+PV         H(T)/Eh          T*S/Eh         G(T)/Eh
   ------------------------------------------------------------------------
    298.15    0.558719E-02    0.242559E-01    0.325149E-01   -0.825900E-02
    120.00    0.173639E-02    0.204051E-01    0.107877E-01    0.961745E-02
    100.00    0.139392E-02    0.200627E-01    0.867796E-02    0.113847E-01
     80.00    0.107407E-02    0.197428E-01    0.665732E-02    0.130855E-01
     60.00    0.778912E-03    0.194476E-01    0.473875E-02    0.147089E-01
     40.00    0.508642E-03    0.191774E-01    0.294048E-02    0.162369E-01
     20.00    0.253354E-03    0.189221E-01    0.129336E-02    0.176287E-01
     10.00    0.126676E-03    0.187954E-01    0.558789E-03    0.182366E-01 (used)
   ------------------------------------------------------------------------

         :::::::::::::::::::::::::::::::::::::::::::::::::::::
         ::                  THERMODYNAMIC                  ::
         :::::::::::::::::::::::::::::::::::::::::::::::::::::
         :: total free energy         -11.105587605082 Eh   ::
         ::.................................................::
         :: total energy              -11.123824229550 Eh   ::
         :: zero point energy           0.018668737066 Eh   ::
         :: G(RRHO) w/o ZPVE           -0.000432112598 Eh   ::
         :: G(RRHO) contrib.            0.018236624468 Eh   ::
         :::::::::::::::::::::::::::::::::::::::::::::::::::::

           -------------------------------------------------
          | TOTAL ENERGY              -11.123824229550 Eh   |
          | TOTAL ENTHALPY            -11.105028816468 Eh   |
          | TOTAL FREE ENERGY         -11.105587605082 Eh   |
          | GRADIENT NORM               0.000933094476 Eh/Î± |
          | HOMO-LUMO GAP               1.790044299737 eV   |
           -------------------------------------------------

 * finished run on 2020/05/12 at 11:43:57.031
