   * xtb version 6.2.2 (9d81278992624c895f80dd42a50cac0aa55982e2) compiled by '@Darwin' on 04/03/2020
          program call               : xtb --input C3N1_0_S_1.input C3N1_0_S_1.xyz --ohess --molden --namespace C3N1_0_S_1 output.out
          number of atoms            :                     4
          number of electrons        :                    17
          charge                     :                     0
          spin                       :                   0.5

   ID    Z sym.   atoms
    1    6 C      1-3
    2    7 N      4

          :  Hamiltonian                  GFN2-xTB          :
 * total energy  :    -8.7898746 Eh     change        0.1049205E-09 Eh
 * total energy  :    -8.8451001 Eh     change       -0.5522553E-01 Eh
 * total energy  :    -8.8576200 Eh     change       -0.1251984E-01 Eh
 * total energy  :    -8.8779663 Eh     change       -0.2034629E-01 Eh
 * total energy  :    -8.8896917 Eh     change       -0.1172544E-01 Eh
 * total energy  :    -8.3118122 Eh     change        0.5778796E+00 Eh
 * total energy  :    -8.9298250 Eh     change       -0.6180129E+00 Eh
 * total energy  :    -8.9603150 Eh     change       -0.3048993E-01 Eh
 * total energy  :    -9.0037322 Eh     change       -0.4341725E-01 Eh
 * total energy  :    -9.0282701 Eh     change       -0.2453784E-01 Eh
 * total energy  :    -9.0385500 Eh     change       -0.1027995E-01 Eh
 * total energy  :    -9.0396543 Eh     change       -0.1104301E-02 Eh
 * total energy  :    -9.0418712 Eh     change       -0.2216899E-02 Eh
 * total energy  :    -9.0421820 Eh     change       -0.3108115E-03 Eh
 * total energy  :    -9.0423140 Eh     change       -0.1319538E-03 Eh
 * total energy  :    -9.0423406 Eh     change       -0.2660028E-04 Eh
 * total energy  :    -9.0423495 Eh     change       -0.8905937E-05 Eh
 * total energy  :    -9.0423497 Eh     change       -0.2430608E-06 Eh
   *** GEOMETRY OPTIMIZATION CONVERGED AFTER 18 ITERATIONS ***

 final structure:
================
4
 xtb: 6.2.2 (9d81278992624c895f80dd42a50cac0aa55982e2)
C         0.79083464024485   -0.87167398466989   -0.06430380109191
C        -0.07096027764565    0.41227480331981    0.02685429347308
C        -0.45338231133255   -1.08693865208558   -0.06088794042182
N        -0.26649205126665    1.54633783343566    0.09833744804065

          :  Hamiltonian                  GFN2-xTB          :
         :: gradient norm              0.000133525761 Eh/a0 ::
         :: HOMO-LUMO gap              1.805431109869 eV    ::
         :: SCC energy                -9.237802156147 Eh    ::
         :: -> dispersion             -0.001731922204 Eh    ::
         :: repulsion energy           0.195452411797 Eh    ::

    * Orbital Energies and Occupations

         #    Occupation            Energy/Eh            Energy/eV
      -------------------------------------------------------------
         1        2.0000           -0.7243168             -19.7097
         2        2.0000           -0.6947858             -18.9061
         3        2.0000           -0.5862143             -15.9517
         4        2.0000           -0.5805620             -15.7979
         5        2.0000           -0.5608853             -15.2625
         6        2.0000           -0.5047841             -13.7359
         7        2.0000           -0.4801948             -13.0668
         8        2.0000           -0.4783776             -13.0173
         9        1.0000           -0.4164255             -11.3315 (HOMO)
        10                         -0.3500769              -9.5261 (LUMO)
        11                         -0.2647590              -7.2045
        12                         -0.2383961              -6.4871
        13                         -0.0521637              -1.4194
        14                         -0.0283135              -0.7704
        15                          0.6686793              18.1957
        16                          0.9730568              26.4782
      -------------------------------------------------------------
                  HL-Gap            0.0663486 Eh            1.8054 eV

     #   Z        covCN         q      C6AA      Î±(0)
     1   6 C      1.954    -0.014    31.451     9.057
     2   6 C      2.856     0.207    23.621     7.966
     3   6 C      1.953    -0.014    31.454     9.057
     4   7 N      0.911    -0.179    24.870     7.213

Wiberg/Mayer (AO) data.
largest (>0.10) Wiberg bond orders for each atom
          total WBO             WBO to atom ...

molecular dipole:
                 x           y           z       tot (Debye)
 q only:        0.053      -0.308      -0.019
   full:        0.112      -0.647      -0.041       1.673

 projected vibrational frequencies (cm-1)
eigval :       -0.00    -0.00    -0.00     0.00     0.00     0.00
eigval :     -359.58   377.70   430.43   773.68  1874.31  2253.56

   temp. (K)  partition function   enthalpy   heat capacity  entropy
                                   cal/mol     cal/K/mol   cal/K/mol   J/K/mol
  10.00  VIB   1.00                    0.000      0.000     -0.001
         ROT   47.2                   29.809      2.981     10.639
         INT   47.2                   29.809      2.981     10.638
         TR   0.210E+25               49.681      4.968     20.778
         TOT                          79.4904     7.9490    31.4165   131.4465

       T/K    H(0)-H(T)+PV         H(T)/Eh          T*S/Eh         G(T)/Eh
   ------------------------------------------------------------------------
    298.15    0.447702E-02    0.174846E-01    0.287620E-01   -0.112774E-01
    120.00    0.155054E-02    0.145581E-01    0.982103E-02    0.473711E-02
    100.00    0.127837E-02    0.142860E-01    0.793630E-02    0.634968E-02
     80.00    0.101620E-02    0.140238E-01    0.611522E-02    0.790858E-02
     60.00    0.760321E-03    0.137679E-01    0.436572E-02    0.940220E-02
     40.00    0.506707E-03    0.135143E-01    0.270489E-02    0.108094E-01
     20.00    0.253352E-03    0.132610E-01    0.117687E-02    0.120841E-01
     10.00    0.126676E-03    0.131343E-01    0.500653E-03    0.126336E-01 (used)
   ------------------------------------------------------------------------

         :::::::::::::::::::::::::::::::::::::::::::::::::::::
         ::                  THERMODYNAMIC                  ::
         :::::::::::::::::::::::::::::::::::::::::::::::::::::
         :: total free energy          -9.029716115988 Eh   ::
         ::.................................................::
         :: total energy               -9.042349738448 Eh   ::
         :: zero point energy           0.013007599602 Eh   ::
         :: G(RRHO) w/o ZPVE           -0.000373977142 Eh   ::
         :: G(RRHO) contrib.            0.012633622460 Eh   ::
         :::::::::::::::::::::::::::::::::::::::::::::::::::::

           -------------------------------------------------
          | TOTAL ENERGY               -9.042349738448 Eh   |
          | TOTAL ENTHALPY             -9.029215462831 Eh   |
          | TOTAL FREE ENERGY          -9.029716115988 Eh   |
          | GRADIENT NORM               0.000133542242 Eh/Î± |
          | HOMO-LUMO GAP               1.805437230331 eV   |
           -------------------------------------------------

 * finished run on 2020/05/12 at 11:45:03.637
