   * xtb version 6.2.2 (9d81278992624c895f80dd42a50cac0aa55982e2) compiled by '@Darwin' on 04/03/2020
          program call               : xtb --input C4_0_S_0.input C4_0_S_0.xyz --ohess --molden --namespace C4_0_S_0 output.out
          number of atoms            :                     4
          number of electrons        :                    16
          charge                     :                     0
          spin                       :                   0.0

   ID    Z sym.   atoms
    1    6 C      1-4

          :  Hamiltonian                  GFN2-xTB          :
 * total energy  :    -7.9617595 Eh     change       -0.2372920E-09 Eh
 * total energy  :    -8.0081337 Eh     change       -0.4637422E-01 Eh
 * total energy  :    -8.0127255 Eh     change       -0.4591780E-02 Eh
 * total energy  :    -8.0145476 Eh     change       -0.1822115E-02 Eh
 * total energy  :    -8.0146158 Eh     change       -0.6817520E-04 Eh
 * total energy  :    -8.0147117 Eh     change       -0.9587205E-04 Eh
 * total energy  :    -8.0207579 Eh     change       -0.6046164E-02 Eh
 * total energy  :    -8.0619625 Eh     change       -0.4120464E-01 Eh
 * total energy  :    -8.0913600 Eh     change       -0.2939752E-01 Eh
 * total energy  :    -8.1157450 Eh     change       -0.2438501E-01 Eh
 * total energy  :    -8.1400259 Eh     change       -0.2428091E-01 Eh
 * total energy  :    -8.1444250 Eh     change       -0.4399086E-02 Eh
 * total energy  :    -8.1437245 Eh     change        0.7005643E-03 Eh
 * total energy  :    -8.1445618 Eh     change       -0.8373576E-03 Eh
 * total energy  :    -8.1457052 Eh     change       -0.1143429E-02 Eh
 * total energy  :    -8.1458848 Eh     change       -0.1795437E-03 Eh
 * total energy  :    -8.1459062 Eh     change       -0.2136297E-04 Eh
 * total energy  :    -8.1459109 Eh     change       -0.4700251E-05 Eh
   *** GEOMETRY OPTIMIZATION CONVERGED AFTER 18 ITERATIONS ***

 final structure:
================
4
 xtb: 6.2.2 (9d81278992624c895f80dd42a50cac0aa55982e2)
C         0.66654167330785   -0.27678095367439   -0.31443147632229
C        -0.56075501176817    0.23196815636143    0.50533069700958
C        -0.50165286211542   -1.05567685368413   -0.09850347870253
C         0.39586620057573    1.10048965099709   -0.09239474198477

          :  Hamiltonian                  GFN2-xTB          :
         :: gradient norm              0.000948076162 Eh/a0 ::
         :: HOMO-LUMO gap              1.172959576581 eV    ::
         :: SCC energy                -8.266080733886 Eh    ::
         :: -> dispersion             -0.001795966315 Eh    ::
         :: repulsion energy           0.120169875143 Eh    ::

    * Orbital Energies and Occupations

         #    Occupation            Energy/Eh            Energy/eV
      -------------------------------------------------------------
         1        2.0000           -0.7472598             -20.3340
         2        2.0000           -0.6661126             -18.1258
         3        2.0000           -0.6057511             -16.4833
         4        2.0000           -0.5604963             -15.2519
         5        2.0000           -0.5311070             -14.4522
         6        2.0000           -0.4988556             -13.5746
         7        2.0000           -0.4595321             -12.5045
         8        2.0000           -0.4324286             -11.7670 (HOMO)
         9                         -0.3893231             -10.5940 (LUMO)
        10                         -0.3710394             -10.0965
        11                         -0.2658137              -7.2332
        12                         -0.2451570              -6.6711
        13                          0.1166586               3.1744
        14                          0.1455104               3.9595
        15                          0.3057335               8.3194
        16                          0.3367000               9.1621
      -------------------------------------------------------------
                  HL-Gap            0.0431055 Eh            1.1730 eV

     #   Z        covCN         q      C6AA      Î±(0)
     1   6 C      2.931     0.064    26.575     8.454
     2   6 C      2.931     0.062    26.619     8.461
     3   6 C      1.996    -0.063    32.736     9.240
     4   6 C      1.996    -0.063    32.737     9.240

Wiberg/Mayer (AO) data.
largest (>0.10) Wiberg bond orders for each atom
          total WBO             WBO to atom ...

molecular dipole:
                 x           y           z       tot (Debye)
 q only:        0.027      -0.012       0.044
Molecule has the following symmetry elements: 2*(sigma)
WARNING: These symmetry elements match no point group I know of. Sorry.
Trying fallback mode to highest recognized Axis...
   full:        0.216      -0.091       0.366       1.106

 projected vibrational frequencies (cm-1)
eigval :       -0.00    -0.00    -0.00     0.00     0.00     0.00
eigval :      247.74   550.52   832.04  1051.93  1384.49  1422.59

   temp. (K)  partition function   enthalpy   heat capacity  entropy
                                   cal/mol     cal/K/mol   cal/K/mol   J/K/mol
  10.00  VIB   1.00                    0.000      0.000     -0.003
         ROT   72.8                   29.809      2.981     11.502
         INT   72.8                   29.809      2.981     11.499
         TR   0.198E+25               49.681      4.968     20.657
         TOT                          79.4904     7.9490    32.1566   134.5430

       T/K    H(0)-H(T)+PV         H(T)/Eh          T*S/Eh         G(T)/Eh
   ------------------------------------------------------------------------
    298.15    0.457032E-02    0.170759E-01    0.293262E-01   -0.122503E-01
    120.00    0.158474E-02    0.140903E-01    0.100114E-01    0.407890E-02
    100.00    0.130059E-02    0.138062E-01    0.808401E-02    0.572215E-02
     80.00    0.102680E-02    0.135324E-01    0.622305E-02    0.730932E-02
     60.00    0.763038E-03    0.132686E-01    0.443988E-02    0.882874E-02
     40.00    0.506856E-03    0.130124E-01    0.275234E-02    0.102601E-01
     20.00    0.253352E-03    0.127589E-01    0.120049E-02    0.115584E-01
     10.00    0.126676E-03    0.126323E-01    0.512447E-03    0.121198E-01 (used)
   ------------------------------------------------------------------------

         :::::::::::::::::::::::::::::::::::::::::::::::::::::
         ::                  THERMODYNAMIC                  ::
         :::::::::::::::::::::::::::::::::::::::::::::::::::::
         :: total free energy          -8.133791049166 Eh   ::
         ::.................................................::
         :: total energy               -8.145910854974 Eh   ::
         :: zero point energy           0.012505577069 Eh   ::
         :: G(RRHO) w/o ZPVE           -0.000385771260 Eh   ::
         :: G(RRHO) contrib.            0.012119805808 Eh   ::
         :::::::::::::::::::::::::::::::::::::::::::::::::::::

           -------------------------------------------------
          | TOTAL ENERGY               -8.145910854974 Eh   |
          | TOTAL ENTHALPY             -8.133278601890 Eh   |
          | TOTAL FREE ENERGY          -8.133791049166 Eh   |
          | GRADIENT NORM               0.000948071764 Eh/Î± |
          | HOMO-LUMO GAP               1.172959672505 eV   |
           -------------------------------------------------

 * finished run on 2020/05/12 at 14:38:39.378
