   * xtb version 6.2.2 (9d81278992624c895f80dd42a50cac0aa55982e2) compiled by '@Darwin' on 04/03/2020
          program call               : xtb --input H2C2O1_7_S_2.input H2C2O1_7_S_2.xyz --ohess --molden --namespace H2C2O1_7_S_2 output.out
          number of atoms            :                     5
          number of electrons        :                    16
          charge                     :                     0
          spin                       :                   1.0

   ID    Z sym.   atoms
    1    6 C      1, 2
    2    8 O      3
    3    1 H      4, 5

          :  Hamiltonian                  GFN2-xTB          :
 * total energy  :    -9.1015481 Eh     change       -0.2606146E-09 Eh
 * total energy  :    -9.1071576 Eh     change       -0.5609487E-02 Eh
 * total energy  :    -9.1086549 Eh     change       -0.1497342E-02 Eh
 * total energy  :    -9.1087826 Eh     change       -0.1276647E-03 Eh
 * total energy  :    -9.1088261 Eh     change       -0.4357369E-04 Eh
 * total energy  :    -9.1088306 Eh     change       -0.4489909E-05 Eh
   *** GEOMETRY OPTIMIZATION CONVERGED AFTER 6 ITERATIONS ***

 final structure:
================
5
 xtb: 6.2.2 (9d81278992624c895f80dd42a50cac0aa55982e2)
C        -0.27702761845039   -0.00656715830038   -0.08375248565700
C         1.06997831963296   -0.03048325421364   -0.56941802572271
O         0.91192701077407    0.05250429396273    0.76948343319267
H        -0.85684874018732    0.91156816837833   -0.11565654097701
H        -0.84802897176933   -0.92702104982703   -0.00065638083594

          :  Hamiltonian                  GFN2-xTB          :
         :: gradient norm              0.000933670324 Eh/a0 ::
         :: HOMO-LUMO gap              5.230362259119 eV    ::
         :: SCC energy                -9.185240167825 Eh    ::
         :: -> dispersion             -0.001322007534 Eh    ::
         :: repulsion energy           0.076409514556 Eh    ::

    * Orbital Energies and Occupations

         #    Occupation            Energy/Eh            Energy/eV
      -------------------------------------------------------------
         1        2.0000           -0.7419315             -20.1890
         2        2.0000           -0.6507629             -17.7082
         3        2.0000           -0.6136680             -16.6988
         4        2.0000           -0.5797930             -15.7770
         5        2.0000           -0.5551404             -15.1061
         6        2.0000           -0.4926628             -13.4060
         7        2.0000           -0.4734365             -12.8829
         8        1.0000           -0.4185232             -11.3886
         9        1.0000           -0.3064363              -8.3386 (HOMO)
        10                         -0.1142242              -3.1082 (LUMO)
        11                          0.0553357               1.5058
        12                          0.1280705               3.4850
        13                          0.2259616               6.1487
        14                          0.3391547               9.2289
      -------------------------------------------------------------
                  HL-Gap            0.1922121 Eh            5.2304 eV

     #   Z        covCN         q      C6AA      Î±(0)
     1   6 C      3.672     0.082    19.450     6.321
     2   6 C      1.833     0.025    30.518     8.925
     3   8 O      1.696    -0.244    18.038     5.734
     4   1 H      0.925     0.068     2.102     2.267
     5   1 H      0.925     0.068     2.102     2.267

Wiberg/Mayer (AO) data.
largest (>0.10) Wiberg bond orders for each atom
          total WBO             WBO to atom ...

molecular dipole:
                 x           y           z       tot (Debye)
 q only:       -0.633      -0.029      -0.409
   full:       -0.625      -0.022      -0.301       1.765

 projected vibrational frequencies (cm-1)
eigval :       -0.00     0.00     0.00     0.00     0.00     0.00
eigval :      811.73   866.07  1025.65  1045.39  1136.35  1398.50
eigval :     1498.78  2989.75  2994.34

   temp. (K)  partition function   enthalpy   heat capacity  entropy
                                   cal/mol     cal/K/mol   cal/K/mol   J/K/mol
  10.00  VIB   1.00                    0.000      0.000     -0.000
         ROT   43.4                   29.809      2.981     10.474
         INT   43.4                   29.809      2.981     10.474
         TR   0.162E+25               49.681      4.968     20.259
         TOT                          79.4904     7.9490    30.7335   128.5892

       T/K    H(0)-H(T)+PV         H(T)/Eh          T*S/Eh         G(T)/Eh
   ------------------------------------------------------------------------
    298.15    0.401156E-02    0.353741E-01    0.277079E-01    0.766619E-02
    120.00    0.152050E-02    0.328830E-01    0.965387E-02    0.232291E-01
    100.00    0.126681E-02    0.326293E-01    0.781371E-02    0.248156E-01
     80.00    0.101341E-02    0.323759E-01    0.602486E-02    0.263511E-01
     60.00    0.760056E-03    0.321226E-01    0.430005E-02    0.278225E-01
     40.00    0.506704E-03    0.318692E-01    0.266131E-02    0.292079E-01
     20.00    0.253352E-03    0.316159E-01    0.115510E-02    0.304608E-01
     10.00    0.126676E-03    0.314892E-01    0.489770E-03    0.309994E-01 (used)
   ------------------------------------------------------------------------

         :::::::::::::::::::::::::::::::::::::::::::::::::::::
         ::                  THERMODYNAMIC                  ::
         :::::::::::::::::::::::::::::::::::::::::::::::::::::
         :: total free energy          -9.077831212715 Eh   ::
         ::.................................................::
         :: total energy               -9.108830633198 Eh   ::
         :: zero point energy           0.031362514720 Eh   ::
         :: G(RRHO) w/o ZPVE           -0.000363094236 Eh   ::
         :: G(RRHO) contrib.            0.030999420484 Eh   ::
         :::::::::::::::::::::::::::::::::::::::::::::::::::::

           -------------------------------------------------
          | TOTAL ENERGY               -9.108830633198 Eh   |
          | TOTAL ENTHALPY             -9.077341442463 Eh   |
          | TOTAL FREE ENERGY          -9.077831212715 Eh   |
          | GRADIENT NORM               0.000933786866 Eh/Î± |
          | HOMO-LUMO GAP               5.230356481865 eV   |
           -------------------------------------------------

 * finished run on 2020/05/12 at 11:45:15.531
