   * xtb version 6.2.2 (9d81278992624c895f80dd42a50cac0aa55982e2) compiled by '@Darwin' on 04/03/2020
          program call               : xtb --input H2C1N2_13_S_2.input H2C1N2_13_S_2.xyz --ohess --molden --namespace H2C1N2_13_S_2 output.out
          number of atoms            :                     5
          number of electrons        :                    16
          charge                     :                     0
          spin                       :                   1.0

   ID    Z sym.   atoms
    1    7 N      1, 3
    2    6 C      2
    3    1 H      4, 5

          :  Hamiltonian                  GFN2-xTB          :
 * total energy  :    -8.7641863 Eh     change        0.9754260E-09 Eh
 * total energy  :    -8.7683016 Eh     change       -0.4115353E-02 Eh
 * total energy  :    -8.7701875 Eh     change       -0.1885857E-02 Eh
 * total energy  :    -8.7702016 Eh     change       -0.1415046E-04 Eh
 * total energy  :    -8.7702090 Eh     change       -0.7383574E-05 Eh
 * total energy  :    -8.7702156 Eh     change       -0.6590883E-05 Eh
 * total energy  :    -8.7702201 Eh     change       -0.4516544E-05 Eh
   *** GEOMETRY OPTIMIZATION CONVERGED AFTER 7 ITERATIONS ***

 final structure:
================
5
 xtb: 6.2.2 (9d81278992624c895f80dd42a50cac0aa55982e2)
N         0.93689419764030   -0.03203492093925    0.74718922008434
C        -0.22354815207014    0.00288082461023   -0.00931612666724
N         0.99631557089166    0.00711477503127   -0.66662979692877
H        -0.86515981185597   -0.88774116226282   -0.06579099275893
H        -0.84450080460585    0.90978048356056   -0.00545230372940

          :  Hamiltonian                  GFN2-xTB          :
         :: gradient norm              0.000836103151 Eh/a0 ::
         :: HOMO-LUMO gap              6.764082122077 eV    ::
         :: SCC energy                -8.844574395432 Eh    ::
         :: -> dispersion             -0.001352250255 Eh    ::
         :: repulsion energy           0.074354244314 Eh    ::

    * Orbital Energies and Occupations

         #    Occupation            Energy/Eh            Energy/eV
      -------------------------------------------------------------
         1        2.0000           -0.7274954             -19.7962
         2        2.0000           -0.6263400             -17.0436
         3        2.0000           -0.5863686             -15.9559
         4        2.0000           -0.5821154             -15.8402
         5        2.0000           -0.5116096             -13.9216
         6        1.9997           -0.4510001             -12.2723
         7        1.8348           -0.4447606             -12.1026
         8        1.1655           -0.4416841             -12.0188
         9        1.0000           -0.3475888              -9.4584 (HOMO)
        10                         -0.0990134              -2.6943 (LUMO)
        11                          0.0636853               1.7330
        12                          0.0806681               2.1951
        13                          0.1774769               4.8294
        14                          0.3004276               8.1751
      -------------------------------------------------------------
                  HL-Gap            0.2485755 Eh            6.7641 eV

     #   Z        covCN         q      C6AA      Î±(0)
     1   7 N      1.887    -0.166    25.389     7.470
     2   6 C      3.666     0.109    19.039     6.258
     3   7 N      1.887    -0.166    25.389     7.470
     4   1 H      0.923     0.111     1.684     2.030
     5   1 H      0.923     0.111     1.684     2.030

Wiberg/Mayer (AO) data.
largest (>0.10) Wiberg bond orders for each atom
          total WBO             WBO to atom ...

molecular dipole:
                 x           y           z       tot (Debye)
 q only:       -1.012       0.013      -0.042
   full:       -1.413       0.018      -0.059       3.595

 projected vibrational frequencies (cm-1)
eigval :       -0.00    -0.00    -0.00    -0.00     0.00     0.00
eigval :    -1027.78   548.94   794.74   948.10   981.79  1272.56
eigval :     1474.34  2786.63  2852.71

   temp. (K)  partition function   enthalpy   heat capacity  entropy
                                   cal/mol     cal/K/mol   cal/K/mol   J/K/mol
  10.00  VIB   1.00                    0.000      0.000     -0.000
         ROT   21.4                   29.809      2.981      9.070
         INT   21.4                   29.809      2.981      9.070
         TR   0.162E+25               49.681      4.968     20.259
         TOT                          79.4904     7.9490    29.3296   122.7151

       T/K    H(0)-H(T)+PV         H(T)/Eh          T*S/Eh         G(T)/Eh
   ------------------------------------------------------------------------
    298.15    0.414965E-02    0.307126E-01    0.272377E-01    0.347495E-02
    120.00    0.152393E-02    0.280869E-01    0.938938E-02    0.186975E-01
    100.00    0.126774E-02    0.278307E-01    0.759104E-02    0.202397E-01
     80.00    0.101354E-02    0.275765E-01    0.584603E-02    0.217305E-01
     60.00    0.760061E-03    0.273230E-01    0.416583E-02    0.231572E-01
     40.00    0.506704E-03    0.270697E-01    0.257182E-02    0.244979E-01
     20.00    0.253352E-03    0.268163E-01    0.111035E-02    0.257060E-01
     10.00    0.126676E-03    0.266897E-01    0.467397E-03    0.262223E-01 (used)
   ------------------------------------------------------------------------

         :::::::::::::::::::::::::::::::::::::::::::::::::::::
         ::                  THERMODYNAMIC                  ::
         :::::::::::::::::::::::::::::::::::::::::::::::::::::
         :: total free energy          -8.743997872232 Eh   ::
         ::.................................................::
         :: total energy               -8.770220128590 Eh   ::
         :: zero point energy           0.026562977633 Eh   ::
         :: G(RRHO) w/o ZPVE           -0.000340721275 Eh   ::
         :: G(RRHO) contrib.            0.026222256358 Eh   ::
         :::::::::::::::::::::::::::::::::::::::::::::::::::::

           -------------------------------------------------
          | TOTAL ENERGY               -8.770220128590 Eh   |
          | TOTAL ENTHALPY             -8.743530474941 Eh   |
          | TOTAL FREE ENERGY          -8.743997872232 Eh   |
          | GRADIENT NORM               0.000836189015 Eh/Î± |
          | HOMO-LUMO GAP               6.764082309565 eV   |
           -------------------------------------------------

 * finished run on 2020/05/12 at 11:45:24.386
