   * xtb version 6.2.2 (9d81278992624c895f80dd42a50cac0aa55982e2) compiled by '@Darwin' on 04/03/2020
          program call               : xtb --input H2_0_S_2.input H2_0_S_2.xyz --ohess --molden --namespace H2_0_S_2 output.out
          number of atoms            :                     2
          number of electrons        :                     2
          charge                     :                     0
          spin                       :                   1.0

   ID    Z sym.   atoms
    1    1 H      1, 2

          :  Hamiltonian                  GFN2-xTB          :
 * total energy  :    -0.1016881 Eh     change        0.0000000E+00 Eh
 * total energy  :    -0.6983498 Eh     change       -0.5966617E+00 Eh
 * total energy  :    -0.7170024 Eh     change       -0.1865263E-01 Eh
 * total energy  :    -0.7547429 Eh     change       -0.3774053E-01 Eh
 * total energy  :    -0.7698496 Eh     change       -0.1510667E-01 Eh
 * total energy  :    -0.7786196 Eh     change       -0.8769978E-02 Eh
 * total energy  :    -0.7829258 Eh     change       -0.4306201E-02 Eh
 * total energy  :    -0.7850714 Eh     change       -0.2145602E-02 Eh
 * total energy  :    -0.7861068 Eh     change       -0.1035372E-02 Eh
 * total energy  :    -0.7866014 Eh     change       -0.4946246E-03 Eh
 * total energy  :    -0.7868159 Eh     change       -0.2144862E-03 Eh
 * total energy  :    -0.7868863 Eh     change       -0.7040978E-04 Eh
 * total energy  :    -0.7869223 Eh     change       -0.3601013E-04 Eh
 * total energy  :    -0.7869441 Eh     change       -0.2184542E-04 Eh
 * total energy  :    -0.7869587 Eh     change       -0.1458465E-04 Eh
 * total energy  :    -0.7869691 Eh     change       -0.1036354E-04 Eh
 * total energy  :    -0.7869768 Eh     change       -0.7696531E-05 Eh
 * total energy  :    -0.7869827 Eh     change       -0.5907905E-05 Eh
 * total energy  :    -0.7869873 Eh     change       -0.4653136E-05 Eh
   *** GEOMETRY OPTIMIZATION CONVERGED AFTER 19 ITERATIONS ***

 final structure:
================
2
 xtb: 6.2.2 (9d81278992624c895f80dd42a50cac0aa55982e2)
H         1.64889735053275   -0.00000000000000    0.00000000000000
H        -1.64889735053275    0.00000000000000    0.00000000000000

          :  Hamiltonian                  GFN2-xTB          :
         :: gradient norm              0.000161991878 Eh/a0 ::
         :: HOMO-LUMO gap              0.000000000000 eV    ::
         :: SCC energy                -0.786987544112 Eh    ::
         :: -> dispersion             -0.000084288925 Eh    ::
         :: repulsion energy           0.000000199986 Eh    ::

    * Orbital Energies and Occupations

         #    Occupation            Energy/Eh            Energy/eV
Molecule has the following symmetry elements: (i) (Cinf) (C2) 2*(sigma)
It seems to be the Dinfh point group
      -------------------------------------------------------------
         1        1.0000           -0.3967768             -10.7968
         2        1.0000           -0.3906286             -10.6295 (HOMO)
      -------------------------------------------------------------
                  HL-Gap            0.3647735 Eh            9.9260 eV

     #   Z        covCN         q      C6AA      α(0)
     1   1 H      0.000    -0.000     7.620     5.048
     2   1 H      0.000     0.000     7.620     5.048

Wiberg/Mayer (AO) data.
largest (>0.10) Wiberg bond orders for each atom
          total WBO             WBO to atom ...

molecular dipole:
                 x           y           z       tot (Debye)
 q only:       -0.000       0.000       0.000
   full:       -0.000       0.000       0.000       0.000

   temp. (K)  partition function   enthalpy   heat capacity  entropy
                                   cal/mol     cal/K/mol   cal/K/mol   J/K/mol
  10.00  VIB   1.00                    0.000      0.000     -0.016
         ROT   1.13                   19.873      1.987      2.230
         INT   1.13                   19.873      1.987      2.214
         TR   0.170E+23               49.681      4.968     11.209
         TOT                          69.5541     6.9554    13.4228    56.1609

       T/K    H(0)-H(T)+PV         H(T)/Eh          T*S/Eh         G(T)/Eh
   ------------------------------------------------------------------------
    298.15    0.397835E-02    0.428108E-02    0.189775E-01   -0.146964E-01
    120.00    0.148457E-02    0.178730E-02    0.611626E-02   -0.432896E-02
    100.00    0.121343E-02    0.151615E-02    0.485015E-02   -0.333400E-02
     80.00    0.947818E-03    0.125055E-02    0.364344E-02   -0.239290E-02
     60.00    0.691144E-03    0.993872E-03    0.251141E-02   -0.151754E-02
     40.00    0.448494E-03    0.751223E-03    0.147784E-02   -0.726621E-03
     20.00    0.221726E-03    0.524454E-03    0.581894E-03   -0.574395E-04
     10.00    0.110842E-03    0.413570E-03    0.213905E-03    0.199665E-03 (used)
   ------------------------------------------------------------------------

         :::::::::::::::::::::::::::::::::::::::::::::::::::::
         ::                  THERMODYNAMIC                  ::
         :::::::::::::::::::::::::::::::::::::::::::::::::::::
         :: total free energy          -0.786787679460 Eh   ::
         ::.................................................::
         :: total energy               -0.786987344126 Eh   ::
         :: zero point energy           0.000302728621 Eh   ::
         :: G(RRHO) w/o ZPVE           -0.000103063955 Eh   ::
         :: G(RRHO) contrib.            0.000199664666 Eh   ::
         :::::::::::::::::::::::::::::::::::::::::::::::::::::

           -------------------------------------------------
          | TOTAL ENERGY               -0.786987344126 Eh   |
          | TOTAL ENTHALPY             -0.786573773988 Eh   |
          | TOTAL FREE ENERGY          -0.786787679460 Eh   |
          | GRADIENT NORM               0.000161991878 Eh/α |
          | HOMO-LUMO GAP               9.925993435875 eV   |
           -------------------------------------------------

 * finished run on 2020/05/13 at 16:20:26.839
