   * xtb version 6.2.2 (9d81278992624c895f80dd42a50cac0aa55982e2) compiled by '@Darwin' on 04/03/2020
          program call               : xtb --input C4N1_7_S_3.input C4N1_7_S_3.xyz --ohess --molden --namespace C4N1_7_S_3 output.out
          number of atoms            :                     5
          number of electrons        :                    21
          charge                     :                     0
          spin                       :                   1.5

   ID    Z sym.   atoms
    1    6 C      1, 3-5
    2    7 N      2

          :  Hamiltonian                  GFN2-xTB          :
 * total energy  :   -10.8404681 Eh     change       -0.1954348E-10 Eh
 * total energy  :   -10.9739457 Eh     change       -0.1334776E+00 Eh
 * total energy  :   -10.9903820 Eh     change       -0.1643635E-01 Eh
 * total energy  :   -11.0542099 Eh     change       -0.6382788E-01 Eh
 * total energy  :   -11.0666934 Eh     change       -0.1248354E-01 Eh
 * total energy  :   -11.0774990 Eh     change       -0.1080558E-01 Eh
 * total energy  :   -11.0865256 Eh     change       -0.9026581E-02 Eh
 * total energy  :   -11.0879389 Eh     change       -0.1413277E-02 Eh
 * total energy  :   -11.0877502 Eh     change        0.1886831E-03 Eh
 * total energy  :   -11.0841503 Eh     change        0.3599852E-02 Eh
 * total energy  :   -11.0868887 Eh     change        0.1028450E-02 Eh
 * total energy  :   -11.0884261 Eh     change       -0.1537357E-02 Eh
 * total energy  :   -11.0873105 Eh     change        0.1115516E-02 Eh
 * total energy  :   -11.0885821 Eh     change       -0.1271541E-02 Eh
 * total energy  :   -11.0886135 Eh     change       -0.3138540E-04 Eh
 * total energy  :   -11.0886979 Eh     change       -0.8440610E-04 Eh
 * total energy  :   -11.0887162 Eh     change       -0.1834704E-04 Eh
 * total energy  :   -11.0887200 Eh     change       -0.3775767E-05 Eh
 * total energy  :   -11.0887209 Eh     change       -0.8562716E-06 Eh
   *** GEOMETRY OPTIMIZATION CONVERGED AFTER 20 ITERATIONS ***

 final structure:
================
5
 xtb: 6.2.2 (9d81278992624c895f80dd42a50cac0aa55982e2)
C         1.21370079341535    0.08249479777503   -0.11347138307079
N        -0.00133205779546    0.17527299070689    0.14516277982613
C        -1.21363707317130   -0.10616423048686    0.09233748041203
C         2.44825291497449    0.11468925295251   -0.26907040861580
C        -2.44698457742306   -0.26629281094759    0.14504253144844

          :  Hamiltonian                  GFN2-xTB          :
         :: gradient norm              0.000485653833 Eh/a0 ::
         :: HOMO-LUMO gap              4.617545525503 eV    ::
         :: SCC energy               -11.358201381872 Eh    ::
         :: -> dispersion             -0.002705530493 Eh    ::
         :: repulsion energy           0.269481570083 Eh    ::

    * Orbital Energies and Occupations

         #    Occupation            Energy/Eh            Energy/eV
      -------------------------------------------------------------
         1        2.0000           -0.7019712             -19.1016
         2        2.0000           -0.6763164             -18.4035
         3        2.0000           -0.6501482             -17.6914
         4        2.0000           -0.6183667             -16.8266
         5        2.0000           -0.5665420             -15.4164
         6        2.0000           -0.5657860             -15.3958
         7        2.0000           -0.4688001             -12.7567
         8        2.0000           -0.4683092             -12.7433
         9        1.9998           -0.4446973             -12.1008
        10        1.0002           -0.4287828             -11.6678
        11        1.0000           -0.3980832             -10.8324
        12        1.0000           -0.3942906             -10.7292 (HOMO)
        13                         -0.2245989              -6.1116 (LUMO)
        14                         -0.2225193              -6.0551
        15                         -0.1347544              -3.6669
        16                         -0.1223225              -3.3286
        17                          0.0662582               1.8030
        18                          0.4655421              12.6680
        19                          1.0477810              28.5116
        20                          1.3319817              36.2451
      -------------------------------------------------------------
                  HL-Gap            0.1696917 Eh            4.6175 eV

     #   Z        covCN         q      C6AA      Î±(0)
     1   6 C      1.900     0.090    28.862     8.676
     2   7 N      1.824     0.031    21.382     6.852
     3   6 C      1.900     0.090    28.861     8.676
     4   6 C      0.982    -0.105    39.284    10.528
     5   6 C      0.982    -0.105    39.286    10.528

Wiberg/Mayer (AO) data.
largest (>0.10) Wiberg bond orders for each atom
          total WBO             WBO to atom ...

molecular dipole:
                 x           y           z       tot (Debye)
Molecule has the following symmetry elements: (C2) 2*(sigma)
It seems to be the C2v point group
 q only:       -0.000       0.036       0.029
   full:        0.000       0.018       0.013       0.057

 projected vibrational frequencies (cm-1)
eigval :       -0.00    -0.00    -0.00     0.00     0.00     0.00
eigval :      104.38   195.08   288.96   386.22   402.04   880.00
eigval :     1485.77  1750.13  2053.10

   temp. (K)  partition function   enthalpy   heat capacity  entropy
                                   cal/mol     cal/K/mol   cal/K/mol   J/K/mol
  10.00  VIB   1.00                    0.000      0.000     -0.036
         ROT   41.8                   29.809      2.981     10.401
         INT   41.8                   29.809      2.981     10.365
         TR   0.290E+25               49.681      4.968     21.419
         TOT                          79.4905     7.9492    31.7848   132.9876

       T/K    H(0)-H(T)+PV         H(T)/Eh          T*S/Eh         G(T)/Eh
   ------------------------------------------------------------------------
    298.15    0.620179E-02    0.233921E-01    0.322808E-01   -0.888870E-02
    120.00    0.188039E-02    0.190707E-01    0.104100E-01    0.866074E-02
    100.00    0.149360E-02    0.186839E-01    0.832388E-02    0.103600E-01
     80.00    0.113712E-02    0.183274E-01    0.634230E-02    0.119851E-01
     60.00    0.812370E-03    0.180027E-01    0.447760E-02    0.135251E-01
     40.00    0.518948E-03    0.177093E-01    0.274785E-02    0.149614E-01
     20.00    0.253614E-03    0.174439E-01    0.119011E-02    0.162538E-01
     10.00    0.126676E-03    0.173170E-01    0.506523E-03    0.168105E-01 (used)
   ------------------------------------------------------------------------

         :::::::::::::::::::::::::::::::::::::::::::::::::::::
         ::                  THERMODYNAMIC                  ::
         :::::::::::::::::::::::::::::::::::::::::::::::::::::
         :: total free energy         -11.071910388455 Eh   ::
         ::.................................................::
         :: total energy              -11.088720864837 Eh   ::
         :: zero point energy           0.017190323065 Eh   ::
         :: G(RRHO) w/o ZPVE           -0.000379846684 Eh   ::
         :: G(RRHO) contrib.            0.016810476381 Eh   ::
         :::::::::::::::::::::::::::::::::::::::::::::::::::::

           -------------------------------------------------
          | TOTAL ENERGY              -11.088720864837 Eh   |
          | TOTAL ENTHALPY            -11.071403865613 Eh   |
          | TOTAL FREE ENERGY         -11.071910388455 Eh   |
          | GRADIENT NORM               0.000485646245 Eh/Î± |
          | HOMO-LUMO GAP               4.617545781113 eV   |
           -------------------------------------------------

 * finished run on 2020/05/12 at 11:44:00.616
