   * xtb version 6.2.2 (9d81278992624c895f80dd42a50cac0aa55982e2) compiled by '@Darwin' on 04/03/2020
          program call               : xtb --input N2_0_S_0.input N2_0_S_0.xyz --ohess --molden --namespace N2_0_S_0 output.out
          number of atoms            :                     2
          number of electrons        :                    10
          charge                     :                     0
          spin                       :                   0.0

   ID    Z sym.   atoms
    1    7 N      1, 2

          :  Hamiltonian                  GFN2-xTB          :
 * total energy  :    -5.6346900 Eh     change       -0.2389200E-12 Eh
 * total energy  :    -5.7587387 Eh     change       -0.1240487E+00 Eh
 * total energy  :    -5.7303069 Eh     change        0.2843179E-01 Eh
 * total energy  :    -5.7635057 Eh     change       -0.3319878E-01 Eh
 * total energy  :    -5.7638917 Eh     change       -0.3859444E-03 Eh
 * total energy  :    -5.7639353 Eh     change       -0.4365698E-04 Eh
 * total energy  :    -5.7639354 Eh     change       -0.7574365E-07 Eh
   *** GEOMETRY OPTIMIZATION CONVERGED AFTER 7 ITERATIONS ***

 final structure:
================
2
 xtb: 6.2.2 (9d81278992624c895f80dd42a50cac0aa55982e2)
N         0.54916050122411    0.00000000000000    0.00000000000000
N        -0.54916050122411   -0.00000000000000    0.00000000000000

          :  Hamiltonian                  GFN2-xTB          :
         :: gradient norm              0.000422988463 Eh/a0 ::
         :: HOMO-LUMO gap              4.127671122074 eV    ::
         :: SCC energy                -5.850396064635 Eh    ::
         :: -> dispersion             -0.000255719426 Eh    ::
         :: repulsion energy           0.086460672417 Eh    ::

    * Orbital Energies and Occupations

         #    Occupation            Energy/Eh            Energy/eV
      -------------------------------------------------------------
         1        2.0000           -0.7172576             -19.5176
         2        2.0000           -0.5734462             -15.6043
         3        2.0000           -0.5734462             -15.6043
         4        2.0000           -0.5698366             -15.5060
         5        2.0000           -0.4514427             -12.2844 (HOMO)
         6                         -0.2997536              -8.1567 (LUMO)
         7                         -0.2997536              -8.1567
         8                          0.7702520              20.9596
      -------------------------------------------------------------
                  HL-Gap            0.1516891 Eh            4.1277 eV

     #   Z        covCN         q      C6AA      α(0)
     1   7 N      0.981    -0.000    20.943     6.584
     2   7 N      0.981     0.000    20.943     6.584
Molecule has the following symmetry elements: (i) (Cinf) (C2) 2*(sigma)
It seems to be the Dinfh point group

Wiberg/Mayer (AO) data.
largest (>0.10) Wiberg bond orders for each atom
          total WBO             WBO to atom ...

molecular dipole:
                 x           y           z       tot (Debye)
 q only:       -0.000       0.000       0.000
   full:       -0.000       0.000       0.000       0.000

   temp. (K)  partition function   enthalpy   heat capacity  entropy
                                   cal/mol     cal/K/mol   cal/K/mol   J/K/mol
  10.00  VIB   1.00                    0.000      0.000     -0.000
         ROT   1.74                   19.873      1.987      3.090
         INT   1.74                   19.873      1.987      3.090
         TR   0.881E+24               49.681      4.968     19.050
         TOT                          69.5541     6.9554    22.1398    92.6329

       T/K    H(0)-H(T)+PV         H(T)/Eh          T*S/Eh         G(T)/Eh
   ------------------------------------------------------------------------
    298.15    0.330483E-02    0.885608E-02    0.217351E-01   -0.128791E-01
    120.00    0.133010E-02    0.688135E-02    0.753786E-02   -0.656506E-03
    100.00    0.110842E-02    0.665967E-02    0.607953E-02    0.580137E-03
     80.00    0.886732E-03    0.643798E-02    0.466582E-02    0.177216E-02
     60.00    0.665049E-03    0.621630E-02    0.330811E-02    0.290819E-02
     40.00    0.443366E-03    0.599462E-02    0.202570E-02    0.396892E-02
     20.00    0.221683E-03    0.577293E-02    0.859245E-03    0.491369E-02
     10.00    0.110842E-03    0.566209E-02    0.352820E-03    0.530927E-02 (used)
   ------------------------------------------------------------------------

         :::::::::::::::::::::::::::::::::::::::::::::::::::::
         ::                  THERMODYNAMIC                  ::
         :::::::::::::::::::::::::::::::::::::::::::::::::::::
         :: total free energy          -5.758626119114 Eh   ::
         ::.................................................::
         :: total energy               -5.763935392238 Eh   ::
         :: zero point energy           0.005551251567 Eh   ::
         :: G(RRHO) w/o ZPVE           -0.000241978443 Eh   ::
         :: G(RRHO) contrib.            0.005309273124 Eh   ::
         :::::::::::::::::::::::::::::::::::::::::::::::::::::

           -------------------------------------------------
          | TOTAL ENERGY               -5.763935392238 Eh   |
          | TOTAL ENTHALPY             -5.758273299157 Eh   |
          | TOTAL FREE ENERGY          -5.758626119114 Eh   |
          | GRADIENT NORM               0.000422988463 Eh/α |
          | HOMO-LUMO GAP               4.127671121820 eV   |
           -------------------------------------------------

 * finished run on 2020/05/13 at 16:22:22.261
