   * xtb version 6.2.2 (9d81278992624c895f80dd42a50cac0aa55982e2) compiled by '@Darwin' on 04/03/2020
          program call               : xtb --input H2C2N1_12_S_3.input H2C2N1_12_S_3.xyz --ohess --molden --namespace H2C2N1_12_S_3 output.out
          number of atoms            :                     5
          number of electrons        :                    15
          charge                     :                     0
          spin                       :                   1.5

   ID    Z sym.   atoms
    1    6 C      1, 3
    2    7 N      2
    3    1 H      4, 5

          :  Hamiltonian                  GFN2-xTB          :
 * total energy  :    -7.8751719 Eh     change        0.4048628E-09 Eh
 * total energy  :    -7.8974597 Eh     change       -0.2228785E-01 Eh
 * total energy  :    -7.9067502 Eh     change       -0.9290417E-02 Eh
 * total energy  :    -7.9082476 Eh     change       -0.1497439E-02 Eh
 * total energy  :    -7.9085178 Eh     change       -0.2701888E-03 Eh
 * total energy  :    -7.9085908 Eh     change       -0.7301969E-04 Eh
 * total energy  :    -7.9086024 Eh     change       -0.1159007E-04 Eh
 * total energy  :    -7.9086087 Eh     change       -0.6253845E-05 Eh
 * total energy  :    -7.9086091 Eh     change       -0.4852592E-06 Eh
   *** GEOMETRY OPTIMIZATION CONVERGED AFTER 9 ITERATIONS ***

 final structure:
================
5
 xtb: 6.2.2 (9d81278992624c895f80dd42a50cac0aa55982e2)
C         0.77437789629394    0.09127798003982    0.31629408523792
N        -0.01020996698760    1.06919451344098   -0.20995737298630
C        -0.77671276520258    0.07612834250387    0.31457410235438
H         1.41024701841878   -0.60458740537568   -0.20889866460334
H        -1.39770218252253   -0.63201343060900   -0.21201215000266

          :  Hamiltonian                  GFN2-xTB          :
         :: gradient norm              0.000244631463 Eh/a0 ::
         :: HOMO-LUMO gap              5.976858530629 eV    ::
         :: SCC energy                -8.000757034147 Eh    ::
         :: -> dispersion             -0.001523819055 Eh    ::
         :: repulsion energy           0.092147859180 Eh    ::

    * Orbital Energies and Occupations

         #    Occupation            Energy/Eh            Energy/eV
      -------------------------------------------------------------
         1        2.0000           -0.6896630             -18.7667
         2        2.0000           -0.5906565             -16.0726
         3        2.0000           -0.5738686             -15.6158
         4        2.0000           -0.5313469             -14.4587
         5        2.0000           -0.4990964             -13.5811
         6        2.0000           -0.4795005             -13.0479
         7        1.0000           -0.4123167             -11.2197
         8        1.0000           -0.3464203              -9.4266
         9        1.0000           -0.3100658              -8.4373 (HOMO)
        10                         -0.0904203              -2.4605 (LUMO)
        11                          0.1261983               3.4340
        12                          0.1329200               3.6169
        13                          0.3198029               8.7023
        14                          0.3367196               9.1626
      -------------------------------------------------------------
                  HL-Gap            0.2196455 Eh            5.9769 eV

     #   Z        covCN         q      C6AA      Î±(0)
     1   6 C      2.808     0.008    27.825     8.642
     2   7 N      1.820    -0.132    24.634     7.354
     3   6 C      2.808     0.008    27.825     8.642
     4   1 H      0.926     0.058     2.224     2.332
     5   1 H      0.926     0.058     2.224     2.332

Wiberg/Mayer (AO) data.
largest (>0.10) Wiberg bond orders for each atom
          total WBO             WBO to atom ...

molecular dipole:
                 x           y           z       tot (Debye)
 q only:        0.004      -0.399       0.016
   full:        0.007      -0.691      -0.322       1.938

 projected vibrational frequencies (cm-1)
eigval :       -0.00    -0.00    -0.00    -0.00     0.00     0.00
eigval :      751.14   788.12   863.24   905.99   958.41  1219.35
Molecule has the following symmetry elements: (sigma)
It seems to be the Cs point group
eigval :     1561.26  2994.21  3003.31

   temp. (K)  partition function   enthalpy   heat capacity  entropy
                                   cal/mol     cal/K/mol   cal/K/mol   J/K/mol
  10.00  VIB   1.00                    0.000      0.000     -0.000
         ROT   42.1                   29.809      2.981     10.413
         INT   42.1                   29.809      2.981     10.413
         TR   0.151E+25               49.681      4.968     20.115
         TOT                          79.4904     7.9490    30.5279   127.7286

       T/K    H(0)-H(T)+PV         H(T)/Eh          T*S/Eh         G(T)/Eh
   ------------------------------------------------------------------------
    298.15    0.412982E-02    0.338486E-01    0.277624E-01    0.608625E-02
    120.00    0.152107E-02    0.312399E-01    0.961518E-02    0.216247E-01
    100.00    0.126690E-02    0.309857E-01    0.778104E-02    0.232047E-01
     80.00    0.101342E-02    0.307322E-01    0.599865E-02    0.247336E-01
     60.00    0.760056E-03    0.304789E-01    0.428039E-02    0.261985E-01
     40.00    0.506704E-03    0.302255E-01    0.264820E-02    0.275773E-01
     20.00    0.253352E-03    0.299722E-01    0.114854E-02    0.288236E-01
     10.00    0.126676E-03    0.298455E-01    0.486492E-03    0.293590E-01 (used)
   ------------------------------------------------------------------------

         :::::::::::::::::::::::::::::::::::::::::::::::::::::
         ::                  THERMODYNAMIC                  ::
         :::::::::::::::::::::::::::::::::::::::::::::::::::::
         :: total free energy          -7.879250159117 Eh   ::
         ::.................................................::
         :: total energy               -7.908609145407 Eh   ::
         :: zero point energy           0.029718802687 Eh   ::
         :: G(RRHO) w/o ZPVE           -0.000359816398 Eh   ::
         :: G(RRHO) contrib.            0.029358986289 Eh   ::
         :::::::::::::::::::::::::::::::::::::::::::::::::::::

           -------------------------------------------------
          | TOTAL ENERGY               -7.908609145407 Eh   |
          | TOTAL ENTHALPY             -7.878763666703 Eh   |
          | TOTAL FREE ENERGY          -7.879250159117 Eh   |
          | GRADIENT NORM               0.000244652446 Eh/Î± |
          | HOMO-LUMO GAP               5.976858857695 eV   |
           -------------------------------------------------

 * finished run on 2020/05/12 at 11:44:48.624
