   * xtb version 6.2.2 (9d81278992624c895f80dd42a50cac0aa55982e2) compiled by '@Darwin' on 04/03/2020
          program call               : xtb --input H2C2N1_11_S_3.input H2C2N1_11_S_3.xyz --ohess --molden --namespace H2C2N1_11_S_3 output.out
          number of atoms            :                     5
          number of electrons        :                    15
          charge                     :                     0
          spin                       :                   1.5

   ID    Z sym.   atoms
    1    6 C      1, 3
    2    7 N      2
    3    1 H      4, 5

          :  Hamiltonian                  GFN2-xTB          :
 * total energy  :    -7.8529623 Eh     change       -0.4449179E-09 Eh
 * total energy  :    -7.8666816 Eh     change       -0.1371928E-01 Eh
 * total energy  :    -7.8726354 Eh     change       -0.5953772E-02 Eh
 * total energy  :    -7.8734532 Eh     change       -0.8178687E-03 Eh
 * total energy  :    -7.8737761 Eh     change       -0.3228639E-03 Eh
 * total energy  :    -7.8738139 Eh     change       -0.3782948E-04 Eh
 * total energy  :    -7.8738169 Eh     change       -0.3017001E-05 Eh
   *** GEOMETRY OPTIMIZATION CONVERGED AFTER 7 ITERATIONS ***

 final structure:
================
5
 xtb: 6.2.2 (9d81278992624c895f80dd42a50cac0aa55982e2)
C         0.72204430466522    0.06291944091774    0.30302067454990
N        -0.70783364235837    0.03573078925681    0.31303612068765
C        -0.08647047258053    1.16749933001342   -0.19082094383401
H         1.35352920703932   -0.61509447563522   -0.25368322038004
H        -1.28127039676564   -0.65105508455274   -0.17155263102351

          :  Hamiltonian                  GFN2-xTB          :
         :: gradient norm              0.000461929588 Eh/a0 ::
         :: HOMO-LUMO gap              5.883313885889 eV    ::
         :: SCC energy                -7.962630511945 Eh    ::
         :: -> dispersion             -0.001521774531 Eh    ::
         :: repulsion energy           0.088813533689 Eh    ::

    * Orbital Energies and Occupations

         #    Occupation            Energy/Eh            Energy/eV
      -------------------------------------------------------------
         1        2.0000           -0.6791696             -18.4811
         2        2.0000           -0.5991460             -16.3036
         3        2.0000           -0.5689236             -15.4812
         4        2.0000           -0.5299175             -14.4198
         5        2.0000           -0.4786413             -13.0245
         6        2.0000           -0.4574346             -12.4474
         7        1.0000           -0.3880952             -10.5606
         8        1.0000           -0.3447841              -9.3821
         9        1.0000           -0.2710432              -7.3755 (HOMO)
        10                         -0.0548354              -1.4921 (LUMO)
        11                          0.0300878               0.8187
        12                          0.1363045               3.7090
        13                          0.3086531               8.3989
        14                          0.3589543               9.7676
      -------------------------------------------------------------
                  HL-Gap            0.2162078 Eh            5.8833 eV

     #   Z        covCN         q      C6AA      Î±(0)
     1   6 C      2.813    -0.016    28.394     8.730
     2   7 N      2.678    -0.111    23.428     7.189
     3   6 C      1.888    -0.071    33.062     9.287
     4   1 H      0.926     0.045     2.385     2.415
     5   1 H      0.860     0.153     1.379     1.840

Wiberg/Mayer (AO) data.
largest (>0.10) Wiberg bond orders for each atom
          total WBO             WBO to atom ...

molecular dipole:
                 x           y           z       tot (Debye)
 q only:       -0.118      -0.407      -0.120
   full:       -0.325      -0.731      -0.472       2.361

 projected vibrational frequencies (cm-1)
eigval :       -0.00    -0.00     0.00     0.00     0.00     0.00
eigval :      802.20   844.38   928.81   962.22  1020.08  1124.50
eigval :     1506.09  2971.19  3225.20

   temp. (K)  partition function   enthalpy   heat capacity  entropy
                                   cal/mol     cal/K/mol   cal/K/mol   J/K/mol
  10.00  VIB   1.00                    0.000      0.000     -0.000
         ROT   41.7                   29.809      2.981     10.395
         INT   41.7                   29.809      2.981     10.395
         TR   0.151E+25               49.681      4.968     20.115
         TOT                          79.4904     7.9490    30.5094   127.6513

       T/K    H(0)-H(T)+PV         H(T)/Eh          T*S/Eh         G(T)/Eh
   ------------------------------------------------------------------------
    298.15    0.407369E-02    0.345662E-01    0.276791E-01    0.688711E-02
    120.00    0.152064E-02    0.320132E-01    0.961117E-02    0.224020E-01
    100.00    0.126683E-02    0.317594E-01    0.777801E-02    0.239813E-01
     80.00    0.101341E-02    0.315059E-01    0.599628E-02    0.255097E-01
     60.00    0.760056E-03    0.312526E-01    0.427862E-02    0.269740E-01
     40.00    0.506704E-03    0.309992E-01    0.264702E-02    0.283522E-01
     20.00    0.253352E-03    0.307459E-01    0.114795E-02    0.295979E-01
     10.00    0.126676E-03    0.306192E-01    0.486198E-03    0.301330E-01 (used)
   ------------------------------------------------------------------------

         :::::::::::::::::::::::::::::::::::::::::::::::::::::
         ::                  THERMODYNAMIC                  ::
         :::::::::::::::::::::::::::::::::::::::::::::::::::::
         :: total free energy          -7.843683950589 Eh   ::
         ::.................................................::
         :: total energy               -7.873816949517 Eh   ::
         :: zero point energy           0.030492521053 Eh   ::
         :: G(RRHO) w/o ZPVE           -0.000359522124 Eh   ::
         :: G(RRHO) contrib.            0.030132998928 Eh   ::
         :::::::::::::::::::::::::::::::::::::::::::::::::::::

           -------------------------------------------------
          | TOTAL ENERGY               -7.873816949517 Eh   |
          | TOTAL ENTHALPY             -7.843197752449 Eh   |
          | TOTAL FREE ENERGY          -7.843683950589 Eh   |
          | GRADIENT NORM               0.000461945460 Eh/Î± |
          | HOMO-LUMO GAP               5.883313219297 eV   |
           -------------------------------------------------

 * finished run on 2020/05/12 at 11:44:48.357
