   * xtb version 6.2.2 (9d81278992624c895f80dd42a50cac0aa55982e2) compiled by '@Darwin' on 04/03/2020
          program call               : xtb --input H1C3N1_15_S_2.input H1C3N1_15_S_2.xyz --ohess --molden --namespace H1C3N1_15_S_2 output.out
          number of atoms            :                     5
          number of electrons        :                    18
          charge                     :                     0
          spin                       :                   1.0

   ID    Z sym.   atoms
    1    6 C      1-3
    2    7 N      4
    3    1 H      5

          :  Hamiltonian                  GFN2-xTB          :
 * total energy  :    -9.4215295 Eh     change       -0.2441531E-09 Eh
 * total energy  :    -9.4736815 Eh     change       -0.5215203E-01 Eh
 * total energy  :    -9.4928212 Eh     change       -0.1913967E-01 Eh
 * total energy  :    -9.5028723 Eh     change       -0.1005116E-01 Eh
 * total energy  :    -9.5057832 Eh     change       -0.2910866E-02 Eh
 * total energy  :    -9.5089058 Eh     change       -0.3122622E-02 Eh
 * total energy  :    -9.5095475 Eh     change       -0.6416340E-03 Eh
 * total energy  :    -9.5102131 Eh     change       -0.6656415E-03 Eh
 * total energy  :    -9.5104284 Eh     change       -0.2152939E-03 Eh
 * total energy  :    -9.5106705 Eh     change       -0.2421035E-03 Eh
 * total energy  :    -9.5109305 Eh     change       -0.2599632E-03 Eh
 * total energy  :    -9.5111023 Eh     change       -0.1718421E-03 Eh
 * total energy  :    -9.5111590 Eh     change       -0.5666349E-04 Eh
 * total energy  :    -9.5111715 Eh     change       -0.1249875E-04 Eh
 * total energy  :    -9.5111764 Eh     change       -0.4966420E-05 Eh
 * total energy  :    -9.5111810 Eh     change       -0.4605215E-05 Eh
   *** GEOMETRY OPTIMIZATION CONVERGED AFTER 16 ITERATIONS ***

 final structure:
================
5
 xtb: 6.2.2 (9d81278992624c895f80dd42a50cac0aa55982e2)
C         1.88658644434965   -0.32579501875152   -0.01243399939667
C         0.68568461522711    0.12555694289067    0.21055553293206
C        -0.71477738728472   -0.09730316742481    0.09601030786823
N        -0.30982633287831    1.05694383110176   -0.31689521678570
H        -1.54766633941372   -0.75940358781610    0.02276337538208

          :  Hamiltonian                  GFN2-xTB          :
         :: gradient norm              0.000569488734 Eh/a0 ::
         :: HOMO-LUMO gap              0.441483835608 eV    ::
         :: SCC energy                -9.664034208901 Eh    ::
         :: -> dispersion             -0.002169673249 Eh    ::
         :: repulsion energy           0.152853124919 Eh    ::

    * Orbital Energies and Occupations

         #    Occupation            Energy/Eh            Energy/eV
      -------------------------------------------------------------
         1        2.0000           -0.7281993             -19.8153
         2        2.0000           -0.6515629             -17.7299
         3        2.0000           -0.6133320             -16.6896
         4        2.0000           -0.5772711             -15.7083
         5        2.0000           -0.5569957             -15.1566
         6        2.0000           -0.5186557             -14.1133
         7        2.0000           -0.4600526             -12.5187
         8        2.0000           -0.4387860             -11.9400
         9        1.0000           -0.4104725             -11.1695
        10        0.9998           -0.3323997              -9.0451 (HOMO)
        11        0.0002           -0.3161752              -8.6036 (LUMO)
        12                         -0.2268160              -6.1720
        13                         -0.0396261              -1.0783
        14                          0.0585651               1.5936
        15                          0.1403407               3.8189
        16                          0.5127327              13.9522
        17                          0.7666196              20.8608
      -------------------------------------------------------------
                  HL-Gap            0.0162245 Eh            0.4415 eV

     #   Z        covCN         q      C6AA      Î±(0)
     1   6 C      0.981    -0.159    41.143    10.774
     2   6 C      2.867     0.129    25.169     8.224
     3   6 C      2.817     0.097    25.844     8.329
     4   7 N      1.817    -0.153    25.088     7.421
     5   1 H      0.927     0.086     1.919     2.166

Wiberg/Mayer (AO) data.
largest (>0.10) Wiberg bond orders for each atom
          total WBO             WBO to atom ...

molecular dipole:
                 x           y           z       tot (Debye)
 q only:       -0.692      -0.318       0.168
   full:       -1.117      -0.494       0.343       3.223

 projected vibrational frequencies (cm-1)
eigval :       -0.00    -0.00     0.00     0.00     0.00     0.00
Molecule has no symmetry elements
It seems to be the C1 point group
eigval :      280.30   378.24   416.37   712.22   821.05  1007.90
eigval :     1230.21  1668.33  3169.49

   temp. (K)  partition function   enthalpy   heat capacity  entropy
                                   cal/mol     cal/K/mol   cal/K/mol   J/K/mol
  10.00  VIB   1.00                    0.000      0.000     -0.003
         ROT   111.                   29.809      2.981     12.336
         INT   111.                   29.809      2.981     12.333
         TR   0.217E+25               49.681      4.968     20.838
         TOT                          79.4904     7.9490    33.1709   138.7869

       T/K    H(0)-H(T)+PV         H(T)/Eh          T*S/Eh         G(T)/Eh
   ------------------------------------------------------------------------
    298.15    0.508054E-02    0.271426E-01    0.305278E-01   -0.338518E-02
    120.00    0.159856E-02    0.236606E-01    0.102188E-01    0.134418E-01
    100.00    0.130220E-02    0.233643E-01    0.824588E-02    0.151184E-01
     80.00    0.102471E-02    0.230868E-01    0.634934E-02    0.167374E-01
     60.00    0.761883E-03    0.228239E-01    0.453544E-02    0.182885E-01
     40.00    0.506760E-03    0.225688E-01    0.281687E-02    0.197519E-01
     20.00    0.253352E-03    0.223154E-01    0.123281E-02    0.210826E-01
     10.00    0.126676E-03    0.221887E-01    0.528611E-03    0.216601E-01 (used)
   ------------------------------------------------------------------------

         :::::::::::::::::::::::::::::::::::::::::::::::::::::
         ::                  THERMODYNAMIC                  ::
         :::::::::::::::::::::::::::::::::::::::::::::::::::::
         :: total free energy          -9.489520915807 Eh   ::
         ::.................................................::
         :: total energy               -9.511181034205 Eh   ::
         :: zero point energy           0.022062053865 Eh   ::
         :: G(RRHO) w/o ZPVE           -0.000401935467 Eh   ::
         :: G(RRHO) contrib.            0.021660118398 Eh   ::
         :::::::::::::::::::::::::::::::::::::::::::::::::::::

           -------------------------------------------------
          | TOTAL ENERGY               -9.511181034205 Eh   |
          | TOTAL ENTHALPY             -9.488992304324 Eh   |
          | TOTAL FREE ENERGY          -9.489520915807 Eh   |
          | GRADIENT NORM               0.000569941913 Eh/Î± |
          | HOMO-LUMO GAP               0.441491793299 eV   |
           -------------------------------------------------

 * finished run on 2020/05/12 at 11:44:56.363
