   * xtb version 6.2.2 (9d81278992624c895f80dd42a50cac0aa55982e2) compiled by '@Darwin' on 04/03/2020
          program call               : xtb --input H1C4_8_S_3.input H1C4_8_S_3.xyz --ohess --molden --namespace H1C4_8_S_3 output.out
          number of atoms            :                     5
          number of electrons        :                    17
          charge                     :                     0
          spin                       :                   1.5

   ID    Z sym.   atoms
    1    6 C      1-4
    2    1 H      5

          :  Hamiltonian                  GFN2-xTB          :
 * total energy  :    -8.5838345 Eh     change        0.1077822E-09 Eh
 * total energy  :    -8.6097907 Eh     change       -0.2595613E-01 Eh
 * total energy  :    -8.6404973 Eh     change       -0.3070665E-01 Eh
 * total energy  :    -8.6459034 Eh     change       -0.5406040E-02 Eh
 * total energy  :    -8.6473510 Eh     change       -0.1447664E-02 Eh
 * total energy  :    -8.6478865 Eh     change       -0.5354511E-03 Eh
 * total energy  :    -8.6479644 Eh     change       -0.7790056E-04 Eh
 * total energy  :    -8.6479854 Eh     change       -0.2098719E-04 Eh
 * total energy  :    -8.6480011 Eh     change       -0.1575391E-04 Eh
 * total energy  :    -8.6480205 Eh     change       -0.1938949E-04 Eh
 * total energy  :    -8.6480220 Eh     change       -0.1522977E-05 Eh
   *** GEOMETRY OPTIMIZATION CONVERGED AFTER 11 ITERATIONS ***

 final structure:
================
5
 xtb: 6.2.2 (9d81278992624c895f80dd42a50cac0aa55982e2)
C        -0.61793041933674   -0.00005796256219    0.19151136736233
C         0.41239834755148   -0.91694690159804   -0.14266229071490
C         1.48150051036336    0.00231752952592   -0.05033363376121
C         0.40918984255928    0.91674319836042   -0.15262280225491
H        -1.68515828113738   -0.00205586372611    0.15410735936868

          :  Hamiltonian                  GFN2-xTB          :
         :: gradient norm              0.000241381213 Eh/a0 ::
         :: HOMO-LUMO gap              1.733876068616 eV    ::
         :: SCC energy                -8.783327650738 Eh    ::
         :: -> dispersion             -0.002140784588 Eh    ::
         :: repulsion energy           0.135305617944 Eh    ::

    * Orbital Energies and Occupations

         #    Occupation            Energy/Eh            Energy/eV
      -------------------------------------------------------------
         1        2.0000           -0.7016044             -19.0916
         2        2.0000           -0.6148797             -16.7317
         3        2.0000           -0.5907153             -16.0742
         4        2.0000           -0.5349694             -14.5573
         5        2.0000           -0.5143358             -13.9958
         6        2.0000           -0.5094853             -13.8638
         7        2.0000           -0.4382274             -11.9248
         8        1.0000           -0.4018096             -10.9338
         9        1.0000           -0.3618411              -9.8462
        10        1.0000           -0.3548192              -9.6551 (HOMO)
        11                         -0.2911004              -7.9212 (LUMO)
        12                         -0.1893464              -5.1524
        13                          0.1260794               3.4308
        14                          0.1280147               3.4835
        15                          0.1781822               4.8486
        16                          0.2696993               7.3389
        17                          0.6270018              17.0616
      -------------------------------------------------------------
                  HL-Gap            0.0637188 Eh            1.7339 eV

     #   Z        covCN         q      C6AA      Î±(0)
     1   6 C      3.155     0.019    27.278     8.540
     2   6 C      2.755    -0.055    29.333     8.869
     3   6 C      2.229     0.004    30.158     8.893
     4   6 C      2.755    -0.055    29.333     8.869
     5   1 H      0.927     0.085     1.925     2.169

Wiberg/Mayer (AO) data.
largest (>0.10) Wiberg bond orders for each atom
          total WBO             WBO to atom ...

molecular dipole:
                 x           y           z       tot (Debye)
 q only:       -0.367      -0.000       0.062
   full:       -0.558      -0.000       0.122       1.452

 projected vibrational frequencies (cm-1)
eigval :       -0.00    -0.00    -0.00     0.00     0.00     0.00
eigval :      537.71   600.73   742.07   830.01   990.72  1083.78
eigval :     1220.62  1392.30  3168.71

   temp. (K)  partition function   enthalpy   heat capacity  entropy
                                   cal/mol     cal/K/mol   cal/K/mol   J/K/mol
  10.00  VIB   1.00                    0.000      0.000     -0.000
         ROT   86.5                   29.809      2.981     11.845
         INT   86.5                   29.809      2.981     11.844
         TR   0.204E+25               49.681      4.968     20.719
         TOT                          79.4904     7.9490    32.5631   136.2441

       T/K    H(0)-H(T)+PV         H(T)/Eh          T*S/Eh         G(T)/Eh
   ------------------------------------------------------------------------
    298.15    0.438899E-02    0.284616E-01    0.290903E-01   -0.628706E-03
    120.00    0.152673E-02    0.255993E-01    0.100110E-01    0.155883E-01
    100.00    0.126842E-02    0.253410E-01    0.810712E-02    0.172339E-01
     80.00    0.101363E-02    0.250862E-01    0.625838E-02    0.188278E-01
     60.00    0.760064E-03    0.248326E-01    0.447502E-02    0.203576E-01
     40.00    0.506704E-03    0.245793E-01    0.277795E-02    0.218013E-01
     20.00    0.253352E-03    0.243259E-01    0.121341E-02    0.231125E-01
     10.00    0.126676E-03    0.241993E-01    0.518927E-03    0.236803E-01 (used)
   ------------------------------------------------------------------------

         :::::::::::::::::::::::::::::::::::::::::::::::::::::
         ::                  THERMODYNAMIC                  ::
         :::::::::::::::::::::::::::::::::::::::::::::::::::::
         :: total free energy          -8.624341699272 Eh   ::
         ::.................................................::
         :: total energy               -8.648022023084 Eh   ::
         :: zero point energy           0.024072574348 Eh   ::
         :: G(RRHO) w/o ZPVE           -0.000392250536 Eh   ::
         :: G(RRHO) contrib.            0.023680323812 Eh   ::
         :::::::::::::::::::::::::::::::::::::::::::::::::::::

           -------------------------------------------------
          | TOTAL ENERGY               -8.648022023084 Eh   |
          | TOTAL ENTHALPY             -8.623822772720 Eh   |
          | TOTAL FREE ENERGY          -8.624341699272 Eh   |
          | GRADIENT NORM               0.000241696656 Eh/Î± |
          | HOMO-LUMO GAP               1.733876151274 eV   |
           -------------------------------------------------

 * finished run on 2020/05/12 at 11:45:11.505
