   * xtb version 6.2.2 (9d81278992624c895f80dd42a50cac0aa55982e2) compiled by '@Darwin' on 04/03/2020
          program call               : xtb --input C1N1O1_2_S_3.input C1N1O1_2_S_3.xyz --ohess --molden --namespace C1N1O1_2_S_3 output.out
          number of atoms            :                     3
          number of electrons        :                    15
          charge                     :                     0
          spin                       :                   1.5

   ID    Z sym.   atoms
    1    8 O      1
    2    7 N      2
    3    6 C      3

          :  Hamiltonian                  GFN2-xTB          :
 * total energy  :    -8.7181631 Eh     change       -0.3489136E-08 Eh
 * total energy  :    -8.7387497 Eh     change       -0.2058657E-01 Eh
 * total energy  :    -8.7452900 Eh     change       -0.6540301E-02 Eh
 * total energy  :    -8.7454152 Eh     change       -0.1251978E-03 Eh
 * total energy  :    -8.7454275 Eh     change       -0.1223578E-04 Eh
 * total energy  :    -8.7454310 Eh     change       -0.3530382E-05 Eh
   *** GEOMETRY OPTIMIZATION CONVERGED AFTER 6 ITERATIONS ***

 final structure:
================
3
 xtb: 6.2.2 (9d81278992624c895f80dd42a50cac0aa55982e2)
O        -0.01582788081053    0.38700038946208    0.00000000000000
N        -1.12772122296864   -0.20774102352517   -0.00000000000000
C         1.14354810377917   -0.17925836593691    0.00000000000000

          :  Hamiltonian                  GFN2-xTB          :
         :: gradient norm              0.000209763475 Eh/a0 ::
         :: HOMO-LUMO gap              1.205038475802 eV    ::
         :: SCC energy                -8.776011734571 Eh    ::
         :: -> dispersion             -0.000773120998 Eh    ::
         :: repulsion energy           0.030580754160 Eh    ::

    * Orbital Energies and Occupations

         #    Occupation            Energy/Eh            Energy/eV
      -------------------------------------------------------------
         1        2.0000           -0.8314398             -22.6246
         2        2.0000           -0.7693621             -20.9354
         3        2.0000           -0.6832098             -18.5911
         4        2.0000           -0.6638962             -18.0655
         5        2.0000           -0.5436161             -14.7925
         6        2.0000           -0.5125072             -13.9460
         7        1.0000           -0.4432638             -12.0618
         8        1.0000           -0.4240413             -11.5388
         9        1.0000           -0.3585492              -9.7566 (HOMO)
        10                         -0.3142648              -8.5516 (LUMO)
        11                          0.0644367               1.7534
        12                          0.3405928               9.2680
      -------------------------------------------------------------
                  HL-Gap            0.0442844 Eh            1.2050 eV

     #   Z        covCN         q      C6AA      Î±(0)
     1   8 O      1.777     0.138    12.816     4.834
     2   7 N      0.957    -0.053    22.038     6.766
     3   6 C      0.890    -0.085    37.931    10.296

Wiberg/Mayer (AO) data.
largest (>0.10) Wiberg bond orders for each atom
          total WBO             WBO to atom ...

molecular dipole:
                 x           y           z       tot (Debye)
 q only:       -0.075       0.150      -0.000
   full:       -0.225       0.368      -0.000       1.097

 projected vibrational frequencies (cm-1)
eigval :       -0.00    -0.00    -0.00     0.00     0.00     0.00
eigval :      555.87  1063.61  1244.60

   temp. (K)  partition function   enthalpy   heat capacity  entropy
                                   cal/mol     cal/K/mol   cal/K/mol   J/K/mol
  10.00  VIB   1.00                    0.000      0.000     -0.000
         ROT   30.0                   29.809      2.981      9.742
         INT   30.0                   29.809      2.981      9.742
         TR   0.162E+25               49.681      4.968     20.258
         TOT                          79.4904     7.9490    29.9999   125.5196

       T/K    H(0)-H(T)+PV         H(T)/Eh          T*S/Eh         G(T)/Eh
   ------------------------------------------------------------------------
    298.15    0.400557E-02    0.105304E-01    0.273761E-01   -0.168456E-01
    120.00    0.152336E-02    0.804823E-02    0.951690E-02   -0.146867E-02
    100.00    0.126761E-02    0.779248E-02    0.769771E-02    0.947719E-04
     80.00    0.101352E-02    0.753839E-02    0.593146E-02    0.160693E-02
     60.00    0.760060E-03    0.728493E-02    0.422991E-02    0.305501E-02
     40.00    0.506704E-03    0.703157E-02    0.261455E-02    0.441702E-02
     20.00    0.253352E-03    0.677822E-02    0.113172E-02    0.564650E-02
     10.00    0.126676E-03    0.665154E-02    0.478079E-03    0.617346E-02 (used)
   ------------------------------------------------------------------------

         :::::::::::::::::::::::::::::::::::::::::::::::::::::
         ::                  THERMODYNAMIC                  ::
         :::::::::::::::::::::::::::::::::::::::::::::::::::::
         :: total free energy          -8.739257518890 Eh   ::
         ::.................................................::
         :: total energy               -8.745430980994 Eh   ::
         :: zero point energy           0.006524864829 Eh   ::
         :: G(RRHO) w/o ZPVE           -0.000351402725 Eh   ::
         :: G(RRHO) contrib.            0.006173462104 Eh   ::
         :::::::::::::::::::::::::::::::::::::::::::::::::::::

           -------------------------------------------------
          | TOTAL ENERGY               -8.745430980994 Eh   |
          | TOTAL ENTHALPY             -8.738779440149 Eh   |
          | TOTAL FREE ENERGY          -8.739257518890 Eh   |
          | GRADIENT NORM               0.000209815454 Eh/Î± |
          | HOMO-LUMO GAP               1.205039113189 eV   |
           -------------------------------------------------

 * finished run on 2020/05/12 at 11:44:41.391
