   * xtb version 6.2.2 (9d81278992624c895f80dd42a50cac0aa55982e2) compiled by '@Darwin' on 04/03/2020
          program call               : xtb --input C4N1_56_S_3.input C4N1_56_S_3.xyz --ohess --molden --namespace C4N1_56_S_3 output.out
          number of atoms            :                     5
          number of electrons        :                    21
          charge                     :                     0
          spin                       :                   1.5

   ID    Z sym.   atoms
    1    6 C      1, 3-5
    2    7 N      2

          :  Hamiltonian                  GFN2-xTB          :
 * total energy  :   -10.8575691 Eh     change        0.2349889E-09 Eh
 * total energy  :   -10.8724487 Eh     change       -0.1487958E-01 Eh
 * total energy  :   -10.8855823 Eh     change       -0.1313366E-01 Eh
 * total energy  :   -10.9176719 Eh     change       -0.3208956E-01 Eh
 * total energy  :   -10.8910675 Eh     change        0.2660436E-01 Eh
 * total energy  :   -10.9335673 Eh     change       -0.4249979E-01 Eh
 * total energy  :   -10.9429975 Eh     change       -0.9430156E-02 Eh
 * total energy  :   -10.9485527 Eh     change       -0.5555198E-02 Eh
 * total energy  :   -10.9572953 Eh     change       -0.8742653E-02 Eh
 * total energy  :   -10.9608589 Eh     change       -0.3563538E-02 Eh
 * total energy  :   -10.9634806 Eh     change       -0.2621763E-02 Eh
 * total energy  :   -10.9638893 Eh     change       -0.4087057E-03 Eh
 * total energy  :   -10.9640384 Eh     change       -0.1491036E-03 Eh
 * total energy  :   -10.9640812 Eh     change       -0.4277130E-04 Eh
 * total energy  :   -10.9641028 Eh     change       -0.2159360E-04 Eh
 * total energy  :   -10.9641046 Eh     change       -0.1760626E-05 Eh
   *** GEOMETRY OPTIMIZATION CONVERGED AFTER 16 ITERATIONS ***

 final structure:
================
5
 xtb: 6.2.2 (9d81278992624c895f80dd42a50cac0aa55982e2)
C        -1.04654043204035   -0.15297638783729    0.08707145220759
N         0.04213081890200    0.78944877066774   -0.42703086667468
C         1.02545455570066   -0.24214197361457    0.12665545775590
C        -0.00672076858154    0.29628896297118    1.01921744721552
C        -0.01432317398077   -0.69061937218706   -0.80591249050433

          :  Hamiltonian                  GFN2-xTB          :
         :: gradient norm              0.000374074012 Eh/a0 ::
         :: HOMO-LUMO gap              4.325258276099 eV    ::
         :: SCC energy               -11.071131616641 Eh    ::
         :: -> dispersion             -0.002746748261 Eh    ::
         :: repulsion energy           0.107027022126 Eh    ::

    * Orbital Energies and Occupations

         #    Occupation            Energy/Eh            Energy/eV
      -------------------------------------------------------------
         1        2.0000           -0.7834280             -21.3182
         2        2.0000           -0.6696324             -18.2216
         3        2.0000           -0.6696012             -18.2208
         4        2.0000           -0.6283630             -17.0986
         5        2.0000           -0.5501212             -14.9696
         6        2.0000           -0.5144561             -13.9991
         7        2.0000           -0.5144072             -13.9977
         8        2.0000           -0.4968838             -13.5209
         9        1.9998           -0.4923176             -13.3966
        10        1.0003           -0.4765632             -12.9679
        11        1.0000           -0.3929202             -10.6919
        12        1.0000           -0.3927983             -10.6886 (HOMO)
        13                         -0.2338479              -6.3633 (LUMO)
        14                         -0.1811461              -4.9292
        15                         -0.1809194              -4.9231
        16                         -0.0606039              -1.6491
        17                          0.0940594               2.5595
        18                          0.1002427               2.7277
        19                          0.1004961               2.7346
        20                          0.3869538              10.5295
      -------------------------------------------------------------
                  HL-Gap            0.1589504 Eh            4.3253 eV

     #   Z        covCN         q      C6AA      Î±(0)
     1   6 C      3.197     0.018    27.063     8.480
     2   7 N      3.600    -0.074    22.660     7.070
     3   6 C      3.197     0.018    27.063     8.480
     4   6 C      3.196     0.018    27.072     8.482
     5   6 C      3.196     0.018    27.072     8.482

Wiberg/Mayer (AO) data.
largest (>0.10) Wiberg bond orders for each atom
          total WBO             WBO to atom ...

molecular dipole:
                 x           y           z       tot (Debye)
 q only:       -0.007      -0.137       0.074
   full:        0.014       0.258      -0.140       0.747

 projected vibrational frequencies (cm-1)
eigval :       -0.00    -0.00    -0.00    -0.00     0.00     0.00
eigval :      451.35   548.78   549.07   803.89   844.03  1019.77
eigval :     1167.10  1167.46  1368.85

   temp. (K)  partition function   enthalpy   heat capacity  entropy
                                   cal/mol     cal/K/mol   cal/K/mol   J/K/mol
  10.00  VIB   1.00                    0.000      0.000     -0.001
         ROT   33.3                   29.809      2.981      9.950
         INT   33.3                   29.809      2.981      9.949
         TR   0.290E+25               49.681      4.968     21.419
         TOT                          79.4904     7.9490    31.3683   131.2450

       T/K    H(0)-H(T)+PV         H(T)/Eh          T*S/Eh         G(T)/Eh
   ------------------------------------------------------------------------
    298.15    0.464492E-02    0.226887E-01    0.288940E-01   -0.620534E-02
    120.00    0.153670E-02    0.195805E-01    0.979436E-02    0.978612E-02
    100.00    0.127179E-02    0.193156E-01    0.792066E-02    0.113949E-01
     80.00    0.101428E-02    0.190581E-01    0.610683E-02    0.129512E-01
     60.00    0.760107E-03    0.188039E-01    0.436085E-02    0.144430E-01
     40.00    0.506704E-03    0.185505E-01    0.270180E-02    0.158487E-01
     20.00    0.253352E-03    0.182971E-01    0.117534E-02    0.171218E-01
     10.00    0.126676E-03    0.181704E-01    0.499886E-03    0.176706E-01 (used)
   ------------------------------------------------------------------------

         :::::::::::::::::::::::::::::::::::::::::::::::::::::
         ::                  THERMODYNAMIC                  ::
         :::::::::::::::::::::::::::::::::::::::::::::::::::::
         :: total free energy         -10.946434012650 Eh   ::
         ::.................................................::
         :: total energy              -10.964104575619 Eh   ::
         :: zero point energy           0.018043772912 Eh   ::
         :: G(RRHO) w/o ZPVE           -0.000373209943 Eh   ::
         :: G(RRHO) contrib.            0.017670562969 Eh   ::
         :::::::::::::::::::::::::::::::::::::::::::::::::::::

           -------------------------------------------------
          | TOTAL ENERGY              -10.964104575619 Eh   |
          | TOTAL ENTHALPY            -10.945934126691 Eh   |
          | TOTAL FREE ENERGY         -10.946434012650 Eh   |
          | GRADIENT NORM               0.000374109301 Eh/Î± |
          | HOMO-LUMO GAP               4.325260573605 eV   |
           -------------------------------------------------

 * finished run on 2020/05/12 at 11:44:23.847
