   * xtb version 6.2.2 (9d81278992624c895f80dd42a50cac0aa55982e2) compiled by '@Darwin' on 04/03/2020
          program call               : xtb --input H2C2O1_2_S_2.input H2C2O1_2_S_2.xyz --ohess --molden --namespace H2C2O1_2_S_2 output.out
          number of atoms            :                     5
          number of electrons        :                    16
          charge                     :                     0
          spin                       :                   1.0

   ID    Z sym.   atoms
    1    6 C      1, 2
    2    8 O      3
    3    1 H      4, 5

          :  Hamiltonian                  GFN2-xTB          :
 * total energy  :    -9.0563487 Eh     change       -0.3575451E-09 Eh
 * total energy  :    -9.0788840 Eh     change       -0.2253527E-01 Eh
 * total energy  :    -9.0902592 Eh     change       -0.1137519E-01 Eh
 * total energy  :    -9.0921417 Eh     change       -0.1882544E-02 Eh
 * total energy  :    -9.0947917 Eh     change       -0.2649924E-02 Eh
 * total energy  :    -9.0971322 Eh     change       -0.2340579E-02 Eh
 * total energy  :    -9.0986328 Eh     change       -0.1500505E-02 Eh
 * total energy  :    -9.0991260 Eh     change       -0.4932254E-03 Eh
 * total energy  :    -9.0992064 Eh     change       -0.8046969E-04 Eh
 * total energy  :    -9.0992691 Eh     change       -0.6263354E-04 Eh
 * total energy  :    -9.0993054 Eh     change       -0.3630489E-04 Eh
 * total energy  :    -9.0993311 Eh     change       -0.2569366E-04 Eh
 * total energy  :    -9.0993598 Eh     change       -0.2867932E-04 Eh
 * total energy  :    -9.0993778 Eh     change       -0.1803486E-04 Eh
 * total energy  :    -9.0993854 Eh     change       -0.7577245E-05 Eh
 * total energy  :    -9.0993863 Eh     change       -0.9166420E-06 Eh
   *** GEOMETRY OPTIMIZATION CONVERGED AFTER 16 ITERATIONS ***

 final structure:
================
5
 xtb: 6.2.2 (9d81278992624c895f80dd42a50cac0aa55982e2)
C        -0.41478579499363    0.02049947746562    0.12430722315156
C        -1.41800607759645   -0.85441995844460    0.09244838753921
O         0.87334575596043   -0.33910677302998    0.33794996734491
H        -0.54063879635275    1.00193707097306   -0.36291779297820
H         1.50008391298240    0.17109018303591   -0.19178778505748

          :  Hamiltonian                  GFN2-xTB          :
         :: gradient norm              0.000555533299 Eh/a0 ::
         :: HOMO-LUMO gap              2.775562572005 eV    ::
         :: SCC energy                -9.190641955781 Eh    ::
         :: -> dispersion             -0.001412648574 Eh    ::
         :: repulsion energy           0.091255648601 Eh    ::

    * Orbital Energies and Occupations

         #    Occupation            Energy/Eh            Energy/eV
      -------------------------------------------------------------
         1        2.0000           -0.7394767             -20.1222
         2        2.0000           -0.6627816             -18.0352
         3        2.0000           -0.6094703             -16.5845
         4        2.0000           -0.5919387             -16.1075
         5        2.0000           -0.5467903             -14.8789
         6        2.0000           -0.4997325             -13.5984
         7        2.0000           -0.4132018             -11.2438
         8        1.0000           -0.3914308             -10.6514
         9        1.0000           -0.3173770              -8.6363 (HOMO)
        10                         -0.2153770              -5.8607 (LUMO)
        11                          0.0604810               1.6458
        12                          0.1249118               3.3990
        13                          0.2841566               7.7323
        14                          0.5273459              14.3498
      -------------------------------------------------------------
                  HL-Gap            0.1020000 Eh            2.7756 eV

     #   Z        covCN         q      C6AA      Î±(0)
     1   6 C      2.757     0.145    24.830     8.160
     2   6 C      0.982    -0.175    41.737    10.851
     3   8 O      1.659    -0.327    19.480     5.958
     4   1 H      0.923     0.045     2.388     2.417
     5   1 H      0.805     0.312     0.685     1.300

Wiberg/Mayer (AO) data.
largest (>0.10) Wiberg bond orders for each atom
          total WBO             WBO to atom ...

molecular dipole:
                 x           y           z       tot (Debye)
 q only:        0.657       0.684      -0.349
   full:        0.949       1.080      -0.395       3.790

 projected vibrational frequencies (cm-1)
eigval :       -0.00    -0.00     0.00     0.00     0.00     0.00
eigval :      372.62   506.55   777.23  1033.47  1088.64  1213.16
eigval :     1320.67  2740.90  3466.91

   temp. (K)  partition function   enthalpy   heat capacity  entropy
                                   cal/mol     cal/K/mol   cal/K/mol   J/K/mol
  10.00  VIB   1.00                    0.000      0.000     -0.001
         ROT   51.3                   29.809      2.981     10.807
         INT   51.3                   29.809      2.981     10.806
         TR   0.162E+25               49.681      4.968     20.259
         TOT                          79.4904     7.9490    31.0650   129.9758

       T/K    H(0)-H(T)+PV         H(T)/Eh          T*S/Eh         G(T)/Eh
   ------------------------------------------------------------------------
    298.15    0.450301E-02    0.330260E-01    0.286000E-01    0.442597E-02
    120.00    0.154550E-02    0.300685E-01    0.974769E-02    0.203208E-01
    100.00    0.127640E-02    0.297994E-01    0.787796E-02    0.219214E-01
     80.00    0.101576E-02    0.295387E-01    0.606990E-02    0.234688E-01
     60.00    0.760292E-03    0.292833E-01    0.433207E-02    0.249512E-01
     40.00    0.506707E-03    0.290297E-01    0.268247E-02    0.263472E-01
     20.00    0.253352E-03    0.287763E-01    0.116567E-02    0.276107E-01
     10.00    0.126676E-03    0.286497E-01    0.495052E-03    0.281546E-01 (used)
   ------------------------------------------------------------------------

         :::::::::::::::::::::::::::::::::::::::::::::::::::::
         ::                  THERMODYNAMIC                  ::
         :::::::::::::::::::::::::::::::::::::::::::::::::::::
         :: total free energy          -9.071231675239 Eh   ::
         ::.................................................::
         :: total energy               -9.099386286164 Eh   ::
         :: zero point energy           0.028522986426 Eh   ::
         :: G(RRHO) w/o ZPVE           -0.000368375501 Eh   ::
         :: G(RRHO) contrib.            0.028154610924 Eh   ::
         :::::::::::::::::::::::::::::::::::::::::::::::::::::

           -------------------------------------------------
          | TOTAL ENERGY               -9.099386286164 Eh   |
          | TOTAL ENTHALPY             -9.070736623722 Eh   |
          | TOTAL FREE ENERGY          -9.071231675239 Eh   |
          | GRADIENT NORM               0.000555420497 Eh/Î± |
          | HOMO-LUMO GAP               2.775560238577 eV   |
           -------------------------------------------------

 * finished run on 2020/05/12 at 11:45:13.900
