   * xtb version 6.2.2 (9d81278992624c895f80dd42a50cac0aa55982e2) compiled by '@Darwin' on 04/03/2020
          program call               : xtb --input H1C4_1_S_1.input H1C4_1_S_1.xyz --ohess --molden --namespace H1C4_1_S_1 output.out
          number of atoms            :                     5
          number of electrons        :                    17
          charge                     :                     0
          spin                       :                   0.5

   ID    Z sym.   atoms
    1    6 C      1-4
    2    1 H      5

          :  Hamiltonian                  GFN2-xTB          :
 * total energy  :    -8.4570022 Eh     change        0.6395130E-08 Eh
 * total energy  :    -8.4792057 Eh     change       -0.2220357E-01 Eh
 * total energy  :    -8.4879457 Eh     change       -0.8739970E-02 Eh
 * total energy  :    -8.5015889 Eh     change       -0.1364322E-01 Eh
 * total energy  :    -8.5637844 Eh     change       -0.6219542E-01 Eh
 * total energy  :    -8.5690912 Eh     change       -0.5306825E-02 Eh
 * total energy  :    -8.6175227 Eh     change       -0.4843154E-01 Eh
 * total energy  :    -8.6570543 Eh     change       -0.3953160E-01 Eh
 * total energy  :    -8.6935218 Eh     change       -0.3646750E-01 Eh
 * total energy  :    -8.6943072 Eh     change       -0.7853864E-03 Eh
 * total energy  :    -8.7016036 Eh     change        0.1817608E-02 Eh
 * total energy  :    -8.7096553 Eh     change       -0.8051634E-02 Eh
 * total energy  :    -8.7135557 Eh     change       -0.3900418E-02 Eh
 * total energy  :    -8.7148816 Eh     change       -0.1325959E-02 Eh
 * total energy  :    -8.7156614 Eh     change       -0.7797349E-03 Eh
 * total energy  :    -8.7164256 Eh     change       -0.7642240E-03 Eh
 * total energy  :    -8.7164798 Eh     change       -0.5423114E-04 Eh
 * total energy  :    -8.7164922 Eh     change       -0.1241490E-04 Eh
 * total energy  :    -8.7164953 Eh     change       -0.3061739E-05 Eh
   *** GEOMETRY OPTIMIZATION CONVERGED AFTER 22 ITERATIONS ***

 final structure:
================
5
 xtb: 6.2.2 (9d81278992624c895f80dd42a50cac0aa55982e2)
C        -0.48338522737999    0.77659217260662   -0.97278423379360
C         0.19195912801420   -0.30247858647910    0.48898565887286
C         0.81473699184438    0.38926125495648   -0.55948356688888
C        -0.76511104965519   -0.53030437954327   -0.51136861780974
H         0.24180015717660   -0.33307146154073    1.55465075961936

          :  Hamiltonian                  GFN2-xTB          :
         :: gradient norm              0.000673199413 Eh/a0 ::
         :: HOMO-LUMO gap              2.284160211342 eV    ::
         :: SCC energy                -8.857977291959 Eh    ::
         :: -> dispersion             -0.002017137657 Eh    ::
         :: repulsion energy           0.141481970107 Eh    ::

    * Orbital Energies and Occupations

         #    Occupation            Energy/Eh            Energy/eV
      -------------------------------------------------------------
         1        2.0000           -0.7180849             -19.5401
         2        2.0000           -0.6232935             -16.9607
         3        2.0000           -0.6034443             -16.4206
         4        2.0000           -0.5628471             -15.3158
         5        2.0000           -0.5100344             -13.8787
         6        2.0000           -0.5072740             -13.8036
         7        2.0000           -0.4461940             -12.1416
         8        2.0000           -0.4204481             -11.4410
         9        1.0000           -0.3905155             -10.6265 (HOMO)
        10                         -0.3065741              -8.3423 (LUMO)
        11                         -0.2685385              -7.3073
        12                         -0.2459695              -6.6932
        13                          0.1030830               2.8050
        14                          0.1184645               3.2236
        15                          0.1798298               4.8934
        16                          0.2700565               7.3486
        17                          0.6433729              17.5071
      -------------------------------------------------------------
                  HL-Gap            0.0839413 Eh            2.2842 eV

     #   Z        covCN         q      C6AA      Î±(0)
     1   6 C      2.576    -0.061    29.551     8.887
     2   6 C      3.503     0.061    21.064     6.803
     3   6 C      2.763    -0.039    28.955     8.812
     4   6 C      2.763    -0.039    28.947     8.811
     5   1 H      0.927     0.079     1.989     2.206

Wiberg/Mayer (AO) data.
largest (>0.10) Wiberg bond orders for each atom
          total WBO             WBO to atom ...

molecular dipole:
                 x           y           z       tot (Debye)
 q only:        0.110      -0.164       0.480
   full:        0.260      -0.406       0.835       2.451

 projected vibrational frequencies (cm-1)
eigval :       -0.00    -0.00     0.00     0.00     0.00     0.00
eigval :      523.05   624.80   743.61   750.60   914.25  1055.56
eigval :     1273.43  1462.69  3186.16

   temp. (K)  partition function   enthalpy   heat capacity  entropy
                                   cal/mol     cal/K/mol   cal/K/mol   J/K/mol
  10.00  VIB   1.00                    0.000      0.000     -0.000
         ROT   82.8                   29.809      2.981     11.756
         INT   82.8                   29.809      2.981     11.756
         TR   0.204E+25               49.681      4.968     20.719
         TOT                          79.4904     7.9490    32.4750   135.8752

       T/K    H(0)-H(T)+PV         H(T)/Eh          T*S/Eh         G(T)/Eh
   ------------------------------------------------------------------------
    298.15    0.442056E-02    0.284191E-01    0.290910E-01   -0.671838E-03
    120.00    0.152718E-02    0.255257E-01    0.999463E-02    0.155311E-01
    100.00    0.126856E-02    0.252671E-01    0.809323E-02    0.171739E-01
     80.00    0.101365E-02    0.250122E-01    0.624717E-02    0.187650E-01
     60.00    0.760066E-03    0.247586E-01    0.446659E-02    0.202920E-01
     40.00    0.506704E-03    0.245053E-01    0.277233E-02    0.217329E-01
     20.00    0.253352E-03    0.242519E-01    0.121060E-02    0.230413E-01
     10.00    0.126676E-03    0.241252E-01    0.517521E-03    0.236077E-01 (used)
   ------------------------------------------------------------------------

         :::::::::::::::::::::::::::::::::::::::::::::::::::::
         ::                  THERMODYNAMIC                  ::
         :::::::::::::::::::::::::::::::::::::::::::::::::::::
         :: total free energy          -8.692887586894 Eh   ::
         ::.................................................::
         :: total energy               -8.716495297552 Eh   ::
         :: zero point energy           0.023998556092 Eh   ::
         :: G(RRHO) w/o ZPVE           -0.000390845434 Eh   ::
         :: G(RRHO) contrib.            0.023607710658 Eh   ::
         :::::::::::::::::::::::::::::::::::::::::::::::::::::

           -------------------------------------------------
          | TOTAL ENERGY               -8.716495297552 Eh   |
          | TOTAL ENTHALPY             -8.692370065445 Eh   |
          | TOTAL FREE ENERGY          -8.692887586894 Eh   |
          | GRADIENT NORM               0.000672999561 Eh/Î± |
          | HOMO-LUMO GAP               2.284159296473 eV   |
           -------------------------------------------------

 * finished run on 2020/05/12 at 11:45:08.237
