   * xtb version 6.2.2 (9d81278992624c895f80dd42a50cac0aa55982e2) compiled by '@Darwin' on 04/03/2020
          program call               : xtb --input N2O1_0_S_0.input N2O1_0_S_0.xyz --ohess --molden --namespace N2O1_0_S_0 output.out
          number of atoms            :                     3
          number of electrons        :                    16
          charge                     :                     0
          spin                       :                   0.0

   ID    Z sym.   atoms
    1    8 O      1
    2    7 N      2, 3

          :  Hamiltonian                  GFN2-xTB          :
 * total energy  :    -9.5754455 Eh     change       -0.2259526E-11 Eh
 * total energy  :    -9.6083083 Eh     change       -0.3286284E-01 Eh
 * total energy  :    -9.6165874 Eh     change       -0.8279100E-02 Eh
 * total energy  :    -9.6237391 Eh     change       -0.7151657E-02 Eh
 * total energy  :    -9.6249547 Eh     change       -0.1215632E-02 Eh
 * total energy  :    -9.6250864 Eh     change       -0.1316912E-03 Eh
 * total energy  :    -9.6250892 Eh     change       -0.2737142E-05 Eh
   *** GEOMETRY OPTIMIZATION CONVERGED AFTER 7 ITERATIONS ***

 final structure:
================
3
 xtb: 6.2.2 (9d81278992624c895f80dd42a50cac0aa55982e2)
O        -0.00247779942690    0.63234236821839    0.00000000000000
N         0.82879897102902   -0.31292845612121    0.00000000000000
N        -0.82632117160212   -0.31941391209718    0.00000000000000

          :  Hamiltonian                  GFN2-xTB          :
         :: gradient norm              0.000962023103 Eh/a0 ::
         :: HOMO-LUMO gap              1.162673653009 eV    ::
         :: SCC energy                -9.649048737557 Eh    ::
         :: -> dispersion             -0.000717440004 Eh    ::
         :: repulsion energy           0.023959582707 Eh    ::

    * Orbital Energies and Occupations

         #    Occupation            Energy/Eh            Energy/eV
      -------------------------------------------------------------
         1        2.0000           -0.8819510             -23.9991
         2        2.0000           -0.7642331             -20.7958
         3        2.0000           -0.7397423             -20.1294
         4        2.0000           -0.7002124             -19.0537
         5        2.0000           -0.5273562             -14.3501
         6        2.0000           -0.5221831             -14.2093
         7        2.0000           -0.5074177             -13.8075
         8        2.0000           -0.4279939             -11.6463 (HOMO)
         9                         -0.3852664             -10.4836 (LUMO)
        10                         -0.2999291              -8.1615
        11                          0.0486042               1.3226
        12                          0.1627749               4.4293
      -------------------------------------------------------------
                  HL-Gap            0.0427275 Eh            1.1627 eV

     #   Z        covCN         q      C6AA      Î±(0)
     1   8 O      1.845     0.182    12.318     4.740
     2   7 N      1.814    -0.091    23.765     7.223
     3   7 N      1.814    -0.091    23.765     7.223

Wiberg/Mayer (AO) data.
largest (>0.10) Wiberg bond orders for each atom
          total WBO             WBO to atom ...

molecular dipole:
                 x           y           z       tot (Debye)
 q only:       -0.001       0.327      -0.000
   full:       -0.003       0.649      -0.000       1.650

 projected vibrational frequencies (cm-1)
eigval :       -0.00    -0.00     0.00     0.00     0.00     0.00
eigval :      772.21  1218.05  1484.38

   temp. (K)  partition function   enthalpy   heat capacity  entropy
                                   cal/mol     cal/K/mol   cal/K/mol   J/K/mol
  10.00  VIB   1.00                    0.000      0.000     -0.000
         ROT   16.6                   29.809      2.981      8.559
         INT   16.6                   29.809      2.981      8.559
         TR   0.174E+25               49.681      4.968     20.396
         TOT                          79.4904     7.9490    28.9553   121.1490

       T/K    H(0)-H(T)+PV         H(T)/Eh          T*S/Eh         G(T)/Eh
   ------------------------------------------------------------------------
    298.15    0.388449E-02    0.118003E-01    0.267102E-01   -0.149099E-01
    120.00    0.152045E-02    0.943625E-02    0.931375E-02    0.122497E-03
    100.00    0.126681E-02    0.918261E-02    0.753032E-02    0.165229E-02
     80.00    0.101341E-02    0.892921E-02    0.579815E-02    0.313107E-02
     60.00    0.760056E-03    0.867586E-02    0.413002E-02    0.454584E-02
     40.00    0.506704E-03    0.842251E-02    0.254796E-02    0.587455E-02
     20.00    0.253352E-03    0.816915E-02    0.109842E-02    0.707073E-02
     10.00    0.126676E-03    0.804248E-02    0.461432E-03    0.758105E-02 (used)
   ------------------------------------------------------------------------

         :::::::::::::::::::::::::::::::::::::::::::::::::::::
         ::                  THERMODYNAMIC                  ::
         :::::::::::::::::::::::::::::::::::::::::::::::::::::
         :: total free energy          -9.617508108860 Eh   ::
         ::.................................................::
         :: total energy               -9.625089154041 Eh   ::
         :: zero point energy           0.007915801385 Eh   ::
         :: G(RRHO) w/o ZPVE           -0.000334756204 Eh   ::
         :: G(RRHO) contrib.            0.007581045181 Eh   ::
         :::::::::::::::::::::::::::::::::::::::::::::::::::::

           -------------------------------------------------
          | TOTAL ENERGY               -9.625089154041 Eh   |
          | TOTAL ENTHALPY             -9.617046676640 Eh   |
          | TOTAL FREE ENERGY          -9.617508108860 Eh   |
          | GRADIENT NORM               0.000962022522 Eh/Î± |
          | HOMO-LUMO GAP               1.162673661264 eV   |
           -------------------------------------------------

 * finished run on 2020/05/12 at 11:43:54.436
