   * xtb version 6.2.2 (9d81278992624c895f80dd42a50cac0aa55982e2) compiled by '@Darwin' on 04/03/2020
          program call               : xtb --input H1C4_9_S_3.input H1C4_9_S_3.xyz --ohess --molden --namespace H1C4_9_S_3 output.out
          number of atoms            :                     5
          number of electrons        :                    17
          charge                     :                     0
          spin                       :                   1.5

   ID    Z sym.   atoms
    1    6 C      1-4
    2    1 H      5

          :  Hamiltonian                  GFN2-xTB          :
 * total energy  :    -8.5725807 Eh     change        0.1683752E-08 Eh
 * total energy  :    -8.6160871 Eh     change       -0.4350637E-01 Eh
 * total energy  :    -8.6284943 Eh     change       -0.1240724E-01 Eh
 * total energy  :    -8.6345602 Eh     change       -0.6065904E-02 Eh
 * total energy  :    -8.6350563 Eh     change       -0.4960915E-03 Eh
 * total energy  :    -8.6353079 Eh     change       -0.2515859E-03 Eh
 * total energy  :    -8.6353846 Eh     change       -0.7666403E-04 Eh
 * total energy  :    -8.6354230 Eh     change       -0.3838879E-04 Eh
 * total energy  :    -8.6354270 Eh     change       -0.4054564E-05 Eh
   *** GEOMETRY OPTIMIZATION CONVERGED AFTER 9 ITERATIONS ***

 final structure:
================
5
 xtb: 6.2.2 (9d81278992624c895f80dd42a50cac0aa55982e2)
C         1.13141034361617   -0.43507549754320   -0.11825044885425
C        -0.32676777126428   -0.36224403082841   -0.21265290976455
C        -0.54190282008133    1.08266931938889   -0.13239790737818
C         0.74635405350396    0.82577579440400    0.31353434852338
H        -1.00909280577452   -1.11112558542126    0.14976791747361

          :  Hamiltonian                  GFN2-xTB          :
         :: gradient norm              0.000657458007 Eh/a0 ::
         :: HOMO-LUMO gap              1.792478589497 eV    ::
         :: SCC energy                -8.769046529037 Eh    ::
         :: -> dispersion             -0.002082826501 Eh    ::
         :: repulsion energy           0.133619482625 Eh    ::

    * Orbital Energies and Occupations

         #    Occupation            Energy/Eh            Energy/eV
      -------------------------------------------------------------
         1        2.0000           -0.7112056             -19.3529
         2        2.0000           -0.6237740             -16.9738
         3        2.0000           -0.6113327             -16.6352
         4        2.0000           -0.5400175             -14.6946
         5        2.0000           -0.5075646             -13.8115
         6        2.0000           -0.5040636             -13.7163
         7        2.0000           -0.4547491             -12.3744
         8        1.0000           -0.3887913             -10.5796
         9        1.0000           -0.3869620             -10.5298
        10        1.0000           -0.3434290              -9.3452 (HOMO)
        11                         -0.2775566              -7.5527 (LUMO)
        12                         -0.2087117              -5.6793
        13                          0.0484763               1.3191
        14                          0.1173428               3.1931
        15                          0.2447223               6.6592
        16                          0.3490404               9.4979
        17                          0.4433549              12.0643
      -------------------------------------------------------------
                  HL-Gap            0.0658724 Eh            1.7925 eV

     #   Z        covCN         q      C6AA      Î±(0)
     1   6 C      2.042    -0.109    34.006     9.419
     2   6 C      3.818     0.072    19.373     6.264
     3   6 C      2.042    -0.109    34.006     9.419
     4   6 C      2.895     0.059    26.686     8.470
     5   1 H      0.926     0.088     1.899     2.155

Wiberg/Mayer (AO) data.
largest (>0.10) Wiberg bond orders for each atom
          total WBO             WBO to atom ...

molecular dipole:
                 x           y           z       tot (Debye)
 q only:       -0.251      -0.276       0.082
   full:       -0.401      -0.440       0.188       1.586

 projected vibrational frequencies (cm-1)
eigval :       -0.00    -0.00    -0.00     0.00     0.00     0.00
eigval :      506.96   636.08   803.81   859.47   935.81   954.49
eigval :     1290.42  1393.47  3070.77

   temp. (K)  partition function   enthalpy   heat capacity  entropy
                                   cal/mol     cal/K/mol   cal/K/mol   J/K/mol
  10.00  VIB   1.00                    0.000      0.000     -0.000
         ROT   86.4                   29.809      2.981     11.843
         INT   86.4                   29.809      2.981     11.843
         TR   0.204E+25               49.681      4.968     20.719
         TOT                          79.4904     7.9490    32.5615   136.2375

       T/K    H(0)-H(T)+PV         H(T)/Eh          T*S/Eh         G(T)/Eh
   ------------------------------------------------------------------------
    298.15    0.438752E-02    0.281973E-01    0.290885E-01   -0.891231E-03
    120.00    0.152731E-02    0.253371E-01    0.100114E-01    0.153257E-01
    100.00    0.126870E-02    0.250785E-01    0.810721E-02    0.169713E-01
     80.00    0.101370E-02    0.248235E-01    0.625826E-02    0.185652E-01
     60.00    0.760069E-03    0.245699E-01    0.447487E-02    0.200950E-01
     40.00    0.506704E-03    0.243165E-01    0.277785E-02    0.215387E-01
     20.00    0.253352E-03    0.240631E-01    0.121336E-02    0.228498E-01
     10.00    0.126676E-03    0.239365E-01    0.518901E-03    0.234176E-01 (used)
   ------------------------------------------------------------------------

         :::::::::::::::::::::::::::::::::::::::::::::::::::::
         ::                  THERMODYNAMIC                  ::
         :::::::::::::::::::::::::::::::::::::::::::::::::::::
         :: total free energy          -8.612009443153 Eh   ::
         ::.................................................::
         :: total energy               -8.635427013057 Eh   ::
         :: zero point energy           0.023809795203 Eh   ::
         :: G(RRHO) w/o ZPVE           -0.000392225298 Eh   ::
         :: G(RRHO) contrib.            0.023417569904 Eh   ::
         :::::::::::::::::::::::::::::::::::::::::::::::::::::

           -------------------------------------------------
          | TOTAL ENERGY               -8.635427013057 Eh   |
          | TOTAL ENTHALPY             -8.611490541839 Eh   |
          | TOTAL FREE ENERGY          -8.612009443153 Eh   |
          | GRADIENT NORM               0.000657448394 Eh/Î± |
          | HOMO-LUMO GAP               1.792479190497 eV   |
           -------------------------------------------------

 * finished run on 2020/05/12 at 11:45:11.898
