   * xtb version 6.2.2 (9d81278992624c895f80dd42a50cac0aa55982e2) compiled by '@Darwin' on 04/03/2020
          program call               : xtb --input H1C3N1_30_S_0.input H1C3N1_30_S_0.xyz --ohess --molden --namespace H1C3N1_30_S_0 output.out
          number of atoms            :                     5
          number of electrons        :                    18
          charge                     :                     0
          spin                       :                   0.0

   ID    Z sym.   atoms
    1    7 N      1
    2    6 C      2-4
    3    1 H      5

          :  Hamiltonian                  GFN2-xTB          :
 * total energy  :    -9.4739437 Eh     change       -0.2421297E-08 Eh
 * total energy  :    -9.5321606 Eh     change       -0.5821693E-01 Eh
 * total energy  :    -9.5612625 Eh     change       -0.2910186E-01 Eh
 * total energy  :    -9.5791512 Eh     change       -0.1788873E-01 Eh
 * total energy  :    -9.5833891 Eh     change       -0.4237851E-02 Eh
 * total energy  :    -9.5841506 Eh     change       -0.7615644E-03 Eh
 * total energy  :    -9.5846136 Eh     change       -0.4629535E-03 Eh
 * total energy  :    -9.5847785 Eh     change       -0.1648886E-03 Eh
 * total energy  :    -9.5848299 Eh     change       -0.5145298E-04 Eh
 * total energy  :    -9.5848536 Eh     change       -0.2365379E-04 Eh
 * total energy  :    -9.5848580 Eh     change       -0.4401869E-05 Eh
 * total energy  :    -9.5848616 Eh     change       -0.3604446E-05 Eh
   *** GEOMETRY OPTIMIZATION CONVERGED AFTER 12 ITERATIONS ***

 final structure:
================
5
 xtb: 6.2.2 (9d81278992624c895f80dd42a50cac0aa55982e2)
N        -0.87844956941527   -0.48780174514557   -0.26078772873097
C         0.03177783983458    0.52928888769955   -0.12582781448896
C         0.95418970022442   -0.48420682416300   -0.30375706207395
C        -0.01744606464085   -1.11259895533777    0.55702449379021
H        -0.09007190600289    1.55531863694679    0.13334711150366

          :  Hamiltonian                  GFN2-xTB          :
         :: gradient norm              0.000419155075 Eh/a0 ::
         :: HOMO-LUMO gap              3.165801534356 eV    ::
         :: SCC energy                -9.712865074830 Eh    ::
         :: -> dispersion             -0.001955664735 Eh    ::
         :: repulsion energy           0.128003465077 Eh    ::

    * Orbital Energies and Occupations

         #    Occupation            Energy/Eh            Energy/eV
      -------------------------------------------------------------
         1        2.0000           -0.7491559             -20.3856
         2        2.0000           -0.6416575             -17.4604
         3        2.0000           -0.6347826             -17.2733
         4        2.0000           -0.5914445             -16.0940
         5        2.0000           -0.5429475             -14.7744
         6        2.0000           -0.5241237             -14.2621
         7        2.0000           -0.4848843             -13.1944
         8        2.0000           -0.4385491             -11.9335
         9        2.0000           -0.4317904             -11.7496 (HOMO)
        10                         -0.3154493              -8.5838 (LUMO)
        11                         -0.2813467              -7.6558
        12                         -0.2768853              -7.5344
        13                          0.0580949               1.5808
        14                          0.0755165               2.0549
        15                          0.1247360               3.3942
        16                          0.2672562               7.2724
        17                          0.5973634              16.2551
      -------------------------------------------------------------
                  HL-Gap            0.1163410 Eh            3.1658 eV

     #   Z        covCN         q      C6AA      Î±(0)
     1   7 N      2.486    -0.117    23.601     7.214
     2   6 C      3.680     0.123    18.772     6.206
     3   6 C      2.626    -0.067    29.651     8.907
     4   6 C      2.752    -0.017    28.420     8.730
     5   1 H      0.927     0.078     2.003     2.213

Wiberg/Mayer (AO) data.
largest (>0.10) Wiberg bond orders for each atom
          total WBO             WBO to atom ...

molecular dipole:
                 x           y           z       tot (Debye)
 q only:        0.068       0.557       0.068
   full:       -0.099       1.108       0.128       2.847

 projected vibrational frequencies (cm-1)
eigval :       -0.00    -0.00    -0.00    -0.00     0.00     0.00
eigval :      587.87   636.07   762.58   812.81   954.63  1182.66
eigval :     1334.11  1505.00  3213.77

   temp. (K)  partition function   enthalpy   heat capacity  entropy
                                   cal/mol     cal/K/mol   cal/K/mol   J/K/mol
  10.00  VIB   1.00                    0.000      0.000     -0.000
         ROT   81.3                   29.809      2.981     11.720
         INT   81.3                   29.809      2.981     11.720
         TR   0.217E+25               49.681      4.968     20.838
         TOT                          79.4904     7.9490    32.5580   136.2226

       T/K    H(0)-H(T)+PV         H(T)/Eh          T*S/Eh         G(T)/Eh
   ------------------------------------------------------------------------
    298.15    0.432585E-02    0.293618E-01    0.289968E-01    0.365022E-03
    120.00    0.152449E-02    0.265605E-01    0.100073E-01    0.165531E-01
    100.00    0.126773E-02    0.263037E-01    0.810551E-02    0.181982E-01
     80.00    0.101351E-02    0.260495E-01    0.625759E-02    0.197919E-01
     60.00    0.760059E-03    0.257960E-01    0.447452E-02    0.213215E-01
     40.00    0.506704E-03    0.255427E-01    0.277762E-02    0.227650E-01
     20.00    0.253352E-03    0.252893E-01    0.121325E-02    0.240761E-01
     10.00    0.126676E-03    0.251626E-01    0.518844E-03    0.246438E-01 (used)
   ------------------------------------------------------------------------

         :::::::::::::::::::::::::::::::::::::::::::::::::::::
         ::                  THERMODYNAMIC                  ::
         :::::::::::::::::::::::::::::::::::::::::::::::::::::
         :: total free energy          -9.560217790320 Eh   ::
         ::.................................................::
         :: total energy               -9.584861584021 Eh   ::
         :: zero point energy           0.025035962170 Eh   ::
         :: G(RRHO) w/o ZPVE           -0.000392168468 Eh   ::
         :: G(RRHO) contrib.            0.024643793701 Eh   ::
         :::::::::::::::::::::::::::::::::::::::::::::::::::::

           -------------------------------------------------
          | TOTAL ENERGY               -9.584861584021 Eh   |
          | TOTAL ENTHALPY             -9.559698945836 Eh   |
          | TOTAL FREE ENERGY          -9.560217790320 Eh   |
          | GRADIENT NORM               0.000419126037 Eh/Î± |
          | HOMO-LUMO GAP               3.165800838420 eV   |
           -------------------------------------------------

 * finished run on 2020/05/12 at 11:45:01.962
