   * xtb version 6.2.2 (9d81278992624c895f80dd42a50cac0aa55982e2) compiled by '@Darwin' on 04/03/2020
          program call               : xtb --input C4N1_48_S_1.input C4N1_48_S_1.xyz --ohess --molden --namespace C4N1_48_S_1 output.out
          number of atoms            :                     5
          number of electrons        :                    21
          charge                     :                     0
          spin                       :                   0.5

   ID    Z sym.   atoms
    1    6 C      1, 3-5
    2    7 N      2

          :  Hamiltonian                  GFN2-xTB          :
 * total energy  :   -11.0307809 Eh     change       -0.2617089E-09 Eh
 * total energy  :   -11.0502046 Eh     change       -0.1942371E-01 Eh
 * total energy  :   -11.0550335 Eh     change       -0.4828925E-02 Eh
 * total energy  :   -11.0560141 Eh     change       -0.9805673E-03 Eh
 * total energy  :   -11.0561481 Eh     change       -0.1339836E-03 Eh
 * total energy  :   -11.0564504 Eh     change       -0.3022988E-03 Eh
 * total energy  :   -11.0566014 Eh     change       -0.1510346E-03 Eh
 * total energy  :   -11.0568090 Eh     change       -0.2076108E-03 Eh
 * total energy  :   -11.0568560 Eh     change       -0.4694747E-04 Eh
 * total energy  :   -11.0568591 Eh     change       -0.3062202E-05 Eh
 * total energy  :   -11.0568601 Eh     change       -0.1001232E-05 Eh
   *** GEOMETRY OPTIMIZATION CONVERGED AFTER 11 ITERATIONS ***

 final structure:
================
5
 xtb: 6.2.2 (9d81278992624c895f80dd42a50cac0aa55982e2)
C         0.05934610444693   -0.89727040617243    0.03744399228996
N        -0.77727300495681    0.01392582020191    0.71769179863134
C         0.16784420551978    0.87596319334883    0.12054640837307
C        -0.66051509789871    0.07941567935066   -0.83221754503862
C         1.21059779288881   -0.07203428672897   -0.04346465425575

          :  Hamiltonian                  GFN2-xTB          :
         :: gradient norm              0.000276618439 Eh/a0 ::
         :: HOMO-LUMO gap              1.749829878711 eV    ::
         :: SCC energy               -11.185138769795 Eh    ::
         :: -> dispersion             -0.002463849012 Eh    ::
         :: repulsion energy           0.128278694461 Eh    ::

    * Orbital Energies and Occupations

         #    Occupation            Energy/Eh            Energy/eV
      -------------------------------------------------------------
         1        2.0000           -0.7897702             -21.4907
         2        2.0000           -0.6882745             -18.7289
         3        2.0000           -0.6567868             -17.8721
         4        2.0000           -0.6475364             -17.6204
         5        2.0000           -0.5762937             -15.6817
         6        2.0000           -0.5353934             -14.5688
         7        2.0000           -0.5037704             -13.7083
         8        2.0000           -0.4962463             -13.5035
         9        2.0000           -0.4884185             -13.2905
        10        2.0000           -0.4734701             -12.8838
        11        1.0000           -0.4297699             -11.6946 (HOMO)
        12                         -0.3654645              -9.9448 (LUMO)
        13                         -0.3408461              -9.2749
        14                         -0.1883357              -5.1249
        15                         -0.1075113              -2.9255
        16                          0.0583466               1.5877
        17                          0.0925655               2.5188
        18                          0.1060646               2.8862
        19                          0.1255788               3.4172
        20                          0.4613602              12.5543
      -------------------------------------------------------------
                  HL-Gap            0.0643054 Eh            1.7498 eV

     #   Z        covCN         q      C6AA      Î±(0)
     1   6 C      3.729     0.093    19.133     6.244
     2   7 N      2.857    -0.102    23.232     7.159
     3   6 C      3.729     0.093    19.133     6.244
     4   6 C      3.266    -0.071    28.454     8.609
     5   6 C      2.520    -0.013    28.448     8.714

Wiberg/Mayer (AO) data.
largest (>0.10) Wiberg bond orders for each atom
          total WBO             WBO to atom ...

molecular dipole:
                 x           y           z       tot (Debye)
 q only:        0.250      -0.015       0.003
   full:        0.294      -0.031       0.281       1.037

 projected vibrational frequencies (cm-1)
eigval :       -0.00    -0.00     0.00     0.00     0.00     0.00
eigval :      234.14   567.23   761.96   796.20   985.80  1031.38
eigval :     1069.45  1311.97  1404.26

   temp. (K)  partition function   enthalpy   heat capacity  entropy
                                   cal/mol     cal/K/mol   cal/K/mol   J/K/mol
  10.00  VIB   1.00                    0.000      0.000     -0.003
         ROT   135.                   29.809      2.981     12.734
         INT   135.                   29.809      2.981     12.731
         TR   0.290E+25               49.681      4.968     21.419
         TOT                          79.4904     7.9490    34.1508   142.8868

       T/K    H(0)-H(T)+PV         H(T)/Eh          T*S/Eh         G(T)/Eh
   ------------------------------------------------------------------------
    298.15    0.475219E-02    0.233475E-01    0.305208E-01   -0.717336E-02
    120.00    0.159223E-02    0.201875E-01    0.104040E-01    0.978348E-02
    100.00    0.130565E-02    0.199009E-01    0.840898E-02    0.114919E-01
     80.00    0.102957E-02    0.196248E-01    0.648099E-02    0.131439E-01
     60.00    0.763962E-03    0.193592E-01    0.463175E-02    0.147275E-01
     40.00    0.506939E-03    0.191022E-01    0.287959E-02    0.162226E-01
     20.00    0.253352E-03    0.188486E-01    0.126406E-02    0.175846E-01
     10.00    0.126676E-03    0.187220E-01    0.544227E-03    0.181777E-01 (used)
   ------------------------------------------------------------------------

         :::::::::::::::::::::::::::::::::::::::::::::::::::::
         ::                  THERMODYNAMIC                  ::
         :::::::::::::::::::::::::::::::::::::::::::::::::::::
         :: total free energy         -11.038682332067 Eh   ::
         ::.................................................::
         :: total energy              -11.056860057167 Eh   ::
         :: zero point energy           0.018595276009 Eh   ::
         :: G(RRHO) w/o ZPVE           -0.000417550909 Eh   ::
         :: G(RRHO) contrib.            0.018177725100 Eh   ::
         :::::::::::::::::::::::::::::::::::::::::::::::::::::

           -------------------------------------------------
          | TOTAL ENERGY              -11.056860057167 Eh   |
          | TOTAL ENTHALPY            -11.038138105142 Eh   |
          | TOTAL FREE ENERGY         -11.038682332067 Eh   |
          | GRADIENT NORM               0.000276346505 Eh/Î± |
          | HOMO-LUMO GAP               1.749838364866 eV   |
           -------------------------------------------------

 * finished run on 2020/05/12 at 11:44:20.104
