   * xtb version 6.2.2 (9d81278992624c895f80dd42a50cac0aa55982e2) compiled by '@Darwin' on 04/03/2020
          program call               : xtb --input N1O2_1_S_3.input N1O2_1_S_3.xyz --ohess --molden --namespace N1O2_1_S_3 output.out
          number of atoms            :                     3
          number of electrons        :                    17
          charge                     :                     0
          spin                       :                   1.5

   ID    Z sym.   atoms
    1    8 O      1, 2
    2    7 N      3

          :  Hamiltonian                  GFN2-xTB          :
 * total energy  :   -10.6474860 Eh     change        0.1545075E-10 Eh
 * total energy  :   -10.6545033 Eh     change       -0.7017351E-02 Eh
 * total energy  :   -10.6574904 Eh     change       -0.2987066E-02 Eh
 * total energy  :   -10.6576266 Eh     change       -0.1362023E-03 Eh
 * total energy  :   -10.6576284 Eh     change       -0.1763976E-05 Eh
   *** GEOMETRY OPTIMIZATION CONVERGED AFTER 5 ITERATIONS ***

 final structure:
================
3
 xtb: 6.2.2 (9d81278992624c895f80dd42a50cac0aa55982e2)
O         0.01076774091453    0.44152408090362    0.00000000000000
O        -1.12446010012155   -0.23212049850073    0.00000000000000
N         1.11369235920703   -0.20940358240290    0.00000000000000

          :  Hamiltonian                  GFN2-xTB          :
         :: gradient norm              0.000148868948 Eh/a0 ::
         :: HOMO-LUMO gap              7.723565169181 eV    ::
         :: SCC energy               -10.669745185819 Eh    ::
         :: -> dispersion             -0.000629743509 Eh    ::
         :: repulsion energy           0.012116815165 Eh    ::

    * Orbital Energies and Occupations

         #    Occupation            Energy/Eh            Energy/eV
      -------------------------------------------------------------
         1        2.0000           -0.8420941             -22.9145
         2        2.0000           -0.7968953             -21.6846
         3        2.0000           -0.7187262             -19.5575
         4        2.0000           -0.6825565             -18.5733
         5        2.0000           -0.6694361             -18.2163
         6        2.0000           -0.5700315             -15.5113
         7        1.9990           -0.5221941             -14.2096
         8        1.0010           -0.5091144             -13.8537
         9        1.0000           -0.4608394             -12.5401
        10        1.0000           -0.3922204             -10.6729 (HOMO)
        11                         -0.1083845              -2.9493 (LUMO)
        12                          0.1122905               3.0556
      -------------------------------------------------------------
                  HL-Gap            0.2838359 Eh            7.7236 eV

     #   Z        covCN         q      C6AA      Î±(0)
     1   8 O      1.891     0.146    12.713     4.815
     2   8 O      0.973    -0.130    16.919     5.517
     3   7 N      0.925    -0.016    21.501     6.699

Wiberg/Mayer (AO) data.
largest (>0.10) Wiberg bond orders for each atom
          total WBO             WBO to atom ...

molecular dipole:
                 x           y           z       tot (Debye)
 q only:        0.244       0.185      -0.000
   full:        0.206       0.267      -0.000       0.857

 projected vibrational frequencies (cm-1)
eigval :       -0.00    -0.00    -0.00    -0.00     0.00     0.00
eigval :      510.95  1043.48  1245.22

   temp. (K)  partition function   enthalpy   heat capacity  entropy
                                   cal/mol     cal/K/mol   cal/K/mol   J/K/mol
  10.00  VIB   1.00                    0.000      0.000     -0.000
         ROT   39.8                   29.809      2.981     10.303
         INT   39.8                   29.809      2.981     10.303
         TR   0.185E+25               49.681      4.968     20.528
         TOT                          79.4904     7.9490    30.8308   128.9961

       T/K    H(0)-H(T)+PV         H(T)/Eh          T*S/Eh         G(T)/Eh
   ------------------------------------------------------------------------
    298.15    0.403807E-02    0.104162E-01    0.278209E-01   -0.174047E-01
    120.00    0.152523E-02    0.790331E-02    0.967802E-02   -0.177471E-02
    100.00    0.126826E-02    0.764634E-02    0.783087E-02   -0.184532E-03
     80.00    0.101365E-02    0.739173E-02    0.603753E-02    0.135420E-02
     60.00    0.760067E-03    0.713815E-02    0.430937E-02    0.282878E-02
     40.00    0.506704E-03    0.688479E-02    0.266752E-02    0.421727E-02
     20.00    0.253352E-03    0.663143E-02    0.115820E-02    0.547324E-02
     10.00    0.126676E-03    0.650476E-02    0.491320E-03    0.601344E-02 (used)
   ------------------------------------------------------------------------

         :::::::::::::::::::::::::::::::::::::::::::::::::::::
         ::                  THERMODYNAMIC                  ::
         :::::::::::::::::::::::::::::::::::::::::::::::::::::
         :: total free energy         -10.651614932673 Eh   ::
         ::.................................................::
         :: total energy              -10.657628370761 Eh   ::
         :: zero point energy           0.006378082268 Eh   ::
         :: G(RRHO) w/o ZPVE           -0.000364644180 Eh   ::
         :: G(RRHO) contrib.            0.006013438088 Eh   ::
         :::::::::::::::::::::::::::::::::::::::::::::::::::::

           -------------------------------------------------
          | TOTAL ENERGY              -10.657628370761 Eh   |
          | TOTAL ENTHALPY            -10.651123612477 Eh   |
          | TOTAL FREE ENERGY         -10.651614932673 Eh   |
          | GRADIENT NORM               0.000148967514 Eh/Î± |
          | HOMO-LUMO GAP               7.723568463120 eV   |
           -------------------------------------------------

 * finished run on 2020/05/12 at 11:45:16.777
