   * xtb version 6.2.2 (9d81278992624c895f80dd42a50cac0aa55982e2) compiled by '@Darwin' on 04/03/2020
          program call               : xtb --input C4N1_52_S_3.input C4N1_52_S_3.xyz --ohess --molden --namespace C4N1_52_S_3 output.out
          number of atoms            :                     5
          number of electrons        :                    21
          charge                     :                     0
          spin                       :                   1.5

   ID    Z sym.   atoms
    1    7 N      1
    2    6 C      2-5

          :  Hamiltonian                  GFN2-xTB          :
 * total energy  :   -10.9262907 Eh     change       -0.1062403E-07 Eh
 * total energy  :   -10.9432439 Eh     change       -0.1695322E-01 Eh
 * total energy  :   -10.9497356 Eh     change       -0.6491728E-02 Eh
 * total energy  :   -10.9503152 Eh     change       -0.5795939E-03 Eh
 * total energy  :   -10.9503651 Eh     change       -0.4986566E-04 Eh
 * total energy  :   -10.9503727 Eh     change       -0.7643912E-05 Eh
 * total energy  :   -10.9503728 Eh     change       -0.1088441E-06 Eh
   *** GEOMETRY OPTIMIZATION CONVERGED AFTER 7 ITERATIONS ***

 final structure:
================
5
 xtb: 6.2.2 (9d81278992624c895f80dd42a50cac0aa55982e2)
N         1.35500156607678   -0.01412165438130    0.00364154246147
C         0.22715805772376   -0.71735475794682   -0.35150554629014
C        -0.91615394513711   -0.30480522720237    0.63604716221548
C        -0.90617062099412    0.32378608291689   -0.64094513100755
C         0.24016394233068    0.71249655661360    0.35276097262074

          :  Hamiltonian                  GFN2-xTB          :
         :: gradient norm              0.000133362304 Eh/a0 ::
         :: HOMO-LUMO gap              0.928288095246 eV    ::
         :: SCC energy               -11.067703518712 Eh    ::
         :: -> dispersion             -0.002492081929 Eh    ::
         :: repulsion energy           0.117330652575 Eh    ::

    * Orbital Energies and Occupations

         #    Occupation            Energy/Eh            Energy/eV
      -------------------------------------------------------------
         1        2.0000           -0.7742460             -21.0683
         2        2.0000           -0.7024775             -19.1154
         3        2.0000           -0.6326454             -17.2152
         4        2.0000           -0.6257020             -17.0262
         5        2.0000           -0.5775929             -15.7171
         6        2.0000           -0.5594980             -15.2247
         7        2.0000           -0.5026866             -13.6788
         8        2.0000           -0.4761035             -12.9554
         9        1.9980           -0.4635551             -12.6140
        10        1.0012           -0.4512654             -12.2796
        11        1.0008           -0.4509238             -12.2703
        12        1.0000           -0.3800884             -10.3427 (HOMO)
        13                         -0.3459744              -9.4144 (LUMO)
        14                         -0.1775624              -4.8317
        15                         -0.1117417              -3.0406
        16                          0.0083524               0.2273
        17                          0.0622764               1.6946
        18                          0.1326409               3.6093
        19                          0.2035769               5.5396
        20                          0.2560731               6.9681
      -------------------------------------------------------------
                  HL-Gap            0.0341140 Eh            0.9283 eV

     #   Z        covCN         q      C6AA      Î±(0)
     1   7 N      1.837    -0.191    25.971     7.552
     2   6 C      3.816     0.106    18.830     6.176
     3   6 C      2.929    -0.010    28.273     8.720
     4   6 C      2.929    -0.010    28.273     8.720
     5   6 C      3.816     0.106    18.830     6.176

Wiberg/Mayer (AO) data.
largest (>0.10) Wiberg bond orders for each atom
          total WBO             WBO to atom ...

molecular dipole:
                 x           y           z       tot (Debye)
 q only:       -0.361       0.004      -0.001
   full:       -0.438       0.005      -0.001       1.113

 projected vibrational frequencies (cm-1)
eigval :       -0.00    -0.00     0.00     0.00     0.00     0.00
eigval :     -666.08   380.18   496.39   673.36   803.92   870.60
eigval :     1038.25  1391.13  1425.06

   temp. (K)  partition function   enthalpy   heat capacity  entropy
                                   cal/mol     cal/K/mol   cal/K/mol   J/K/mol
  10.00  VIB   1.00                    0.000      0.000     -0.001
         ROT   74.4                   29.809      2.981     11.545
         INT   74.4                   29.809      2.981     11.544
         TR   0.290E+25               49.681      4.968     21.419
         TOT                          79.4904     7.9490    32.9632   137.9182

       T/K    H(0)-H(T)+PV         H(T)/Eh          T*S/Eh         G(T)/Eh
   ------------------------------------------------------------------------
    298.15    0.464041E-02    0.207673E-01    0.296788E-01   -0.891152E-02
    120.00    0.154569E-02    0.176726E-01    0.101108E-01    0.756180E-02
    100.00    0.127612E-02    0.174030E-01    0.818010E-02    0.922289E-02
     80.00    0.101559E-02    0.171425E-01    0.631171E-02    0.108307E-01
     60.00    0.760262E-03    0.168871E-01    0.451355E-02    0.123736E-01
     40.00    0.506706E-03    0.166336E-01    0.280348E-02    0.138301E-01
     20.00    0.253352E-03    0.163802E-01    0.122617E-02    0.151540E-01
     10.00    0.126676E-03    0.162535E-01    0.525303E-03    0.157282E-01 (used)
   ------------------------------------------------------------------------

         :::::::::::::::::::::::::::::::::::::::::::::::::::::
         ::                  THERMODYNAMIC                  ::
         :::::::::::::::::::::::::::::::::::::::::::::::::::::
         :: total free energy         -10.934644603130 Eh   ::
         ::.................................................::
         :: total energy              -10.950372845723 Eh   ::
         :: zero point energy           0.016126869324 Eh   ::
         :: G(RRHO) w/o ZPVE           -0.000398626730 Eh   ::
         :: G(RRHO) contrib.            0.015728242594 Eh   ::
         :::::::::::::::::::::::::::::::::::::::::::::::::::::

           -------------------------------------------------
          | TOTAL ENERGY              -10.950372845723 Eh   |
          | TOTAL ENTHALPY            -10.934119300384 Eh   |
          | TOTAL FREE ENERGY         -10.934644603130 Eh   |
          | GRADIENT NORM               0.000133227532 Eh/Î± |
          | HOMO-LUMO GAP               0.928288602204 eV   |
           -------------------------------------------------

 * finished run on 2020/05/12 at 11:44:21.972
