 Gaussian 16, Revision B.01,

 --------------------------------------------------------
 #P M062X/cc-pvtz nosymm opt(noeigentest) optcyc=120 freq
 --------------------------------------------------------

 -----
 Title
 -----
 Symbolic Z-matrix:
 Charge =  0 Multiplicity = 2

 SCF Done:  E(UM062X) =  -154.033325370     A.U. after   22 cycles
 SCF Done:  E(UM062X) =  -154.042494541     A.U. after   19 cycles
 SCF Done:  E(UM062X) =  -154.049101414     A.U. after   21 cycles
 SCF Done:  E(UM062X) =  -154.050500159     A.U. after   18 cycles
 SCF Done:  E(UM062X) =  -154.050518817     A.U. after   10 cycles
 SCF Done:  E(UM062X) =  -154.017225071     A.U. after   22 cycles
 SCF Done:  E(UM062X) =  -154.050878795     A.U. after   16 cycles
 SCF Done:  E(UM062X) =  -154.051237968     A.U. after   16 cycles
 SCF Done:  E(UM062X) =  -154.051265937     A.U. after   12 cycles
 SCF Done:  E(UM062X) =  -154.051285084     A.U. after   12 cycles
 SCF Done:  E(UM062X) =  -154.051356596     A.U. after   14 cycles
 SCF Done:  E(UM062X) =  -154.051362500     A.U. after   10 cycles
 SCF Done:  E(UM062X) =  -154.051372303     A.U. after   15 cycles
 SCF Done:  E(UM062X) =  -154.051380375     A.U. after   15 cycles
 SCF Done:  E(UM062X) =  -154.051387256     A.U. after   15 cycles
 SCF Done:  E(UM062X) =  -154.051387719     A.U. after    9 cycles
 SCF Done:  E(UM062X) =  -154.051388157     A.U. after    8 cycles
 SCF Done:  E(UM062X) =  -154.051388299     A.U. after    9 cycles
 Optimization completed.
    -- Stationary point found.
 Normal termination of Gaussian 16 at Fri Sep 25 23:45:36 2020.

 -------------------------------------------------------------------
 #P Geom=AllCheck Guess=TCheck SCRF=Check GenChk UM062X/CC-pVTZ Freq
 -------------------------------------------------------------------

 Structure from the checkpoint file:  "input.chk"
 -----
 Title
 -----
 Charge =  0 Multiplicity = 2

 SCF Done:  E(UM062X) =  -154.051388299     A.U. after    1 cycles

  Exact polarizability:  28.457  -0.072  24.655   7.412   0.162  95.236
 Approx polarizability:  33.710  -0.062  29.763  10.090   0.221 124.740

                      1                      2                      3
                      A                      A                      A
 Frequencies --     63.2441               229.1637               369.0199
 Red. masses --      3.2325                 3.8480                10.4743
 Frc consts  --      0.0076                 0.1191                 0.8404
 IR Inten    --      5.7725                 7.1865                 0.1766

                      4                      5                      6
                      A                      A                      A
 Frequencies --    433.5304               549.4636               694.8486
 Red. masses --      1.1507                 7.4487                 1.2659
 Frc consts  --      0.1274                 1.3250                 0.3601
 IR Inten    --     55.7713                 0.0274                40.8556

                      7                      8                      9
                      A                      A                      A
 Frequencies --    895.3760               917.8725               971.0089
 Red. masses --      4.8977                 1.3294                 1.3401
 Frc consts  --      2.3134                 0.6599                 0.7445
 IR Inten    --      0.3009                49.8373                 0.0090

                     10                     11                     12
                      A                      A                      A
 Frequencies --   1435.0822              1834.5807              2008.7571
 Red. masses --      1.1257                 7.8550                 8.1529
 Frc consts  --      1.3659                15.5764                19.3827
 IR Inten    --      0.6468                12.3610                 5.6676

                     13                     14                     15
                      A                      A                      A
 Frequencies --   3100.3816              3168.7405              3470.7808
 Red. masses --      1.0537                 1.1139                 1.1346
 Frc consts  --      5.9678                 6.5899                 8.0530
 IR Inten    --      1.9750                 0.9101                91.8557

 - Thermochemistry -
 -------------------
 Temperature   298.150 Kelvin.  Pressure   1.00000 Atm.
 Atom     1 has atomic number  6 and mass  12.00000

 Molecular mass:    51.02348 amu.
 Principal axes and moments of inertia in atomic units:
                           1         2         3
     Eigenvalues --     6.16329 431.53123 437.69443
           X            0.10855   0.99364   0.02984
           Y            0.00222  -0.03026   0.99954
           Z            0.99409  -0.10843  -0.00549
 This molecule is an asymmetric top.
 Rotational symmetry number  1.
 Rotational temperatures (Kelvin)     14.05318     0.20071     0.19789
 Rotational constants (GHZ):         292.82084     4.18218     4.12329
 Zero-point vibrational energy     120475.0 (Joules/Mol)
                                   28.79422 (Kcal/Mol)
 Warning -- explicit consideration of   5 degrees of freedom as
           vibrations may cause significant error
 Vibrational temperatures:     90.99   329.72   530.94   623.75   790.56
          (Kelvin)            999.73  1288.25  1320.61  1397.07  2064.76
                             2639.55  2890.15  4460.76  4559.11  4993.68

 Zero-point correction=                           0.045887 (Hartree/Particle)
 Thermal correction to Energy=                    0.051121
 Thermal correction to Enthalpy=                  0.052066
 Thermal correction to Gibbs Free Energy=         0.018714
 Sum of electronic and zero-point Energies=           -154.005502
 Sum of electronic and thermal Energies=              -154.000267
 Sum of electronic and thermal Enthalpies=            -153.999323
 Sum of electronic and thermal Free Energies=         -154.032675

                     E (Thermal)             CV                S
                      KCal/Mol        Cal/Mol-Kelvin    Cal/Mol-Kelvin
 Total                   32.079             16.163             70.195
 Electronic               0.000              0.000              1.377
 Translational            0.889              2.981             37.712
 Rotational               0.889              2.981             21.681
 Vibrational             30.302             10.202              9.424
 Vibration     1          0.597              1.972              4.353
 Vibration     2          0.652              1.796              1.885
 Vibration     3          0.741              1.536              1.084
 Vibration     4          0.794              1.397              0.847
 Vibration     5          0.905              1.141              0.545

                           ! Non-Optimized Parameters !
 Normal termination of Gaussian 16 at Fri Sep 25 23:47:28 2020.
 Gaussian 16:  ES64L-G16RevB.01 20-Dec-2017

 -----------------------------------------------
 #P CCSD(T)/aug-cc-pvtz geom=allcheck guess=read
 -----------------------------------------------

 Structure from the checkpoint file:  "input.chk"
 -----
 Title
 -----
 Charge =  0 Multiplicity = 2

                         Standard orientation:
 ---------------------------------------------------------------------
 Center     Atomic      Atomic             Coordinates (Angstroms)
 Number     Number       Type             X           Y           Z
 ---------------------------------------------------------------------
      1          6           0       -1.866215    0.002508    0.000262
      2          6           0        0.757661   -0.001617   -0.000287
      3          6           0        1.980474    0.001712    0.000387
      4          1           0       -2.430828    0.931396    0.000952
      5          1           0       -2.442643   -0.918945    0.001008
      6          1           0        3.043033    0.005150    0.000574
      7          6           0       -0.566847   -0.005537   -0.000784
 ---------------------------------------------------------------------

 SCF Done:  E(UHF) =  -153.138938650     A.U. after   20 cycles
 E2 =    -0.5502072682D+00 EUMP2 =    -0.15368914591826D+03
 CCSD(T)
 CCSD(T)= -0.15377789228D+03

 The electronic state is 2-A.
 Alpha  occ. eigenvalues --  -11.26676 -11.25653 -11.23929 -11.23591  -1.10180
 Alpha  occ. eigenvalues --   -1.03039  -0.87472  -0.72420  -0.66657  -0.63310
 Alpha  occ. eigenvalues --   -0.49660  -0.48500  -0.37775  -0.34295
 Alpha virt. eigenvalues --    0.02939   0.03241   0.04505   0.07200   0.07264
 Alpha virt. eigenvalues --    0.08489   0.09036   0.10435   0.11014   0.11701
 Alpha virt. eigenvalues --    0.12853   0.13511   0.14908   0.15635   0.16844

  Beta  occ. eigenvalues --  -11.26031 -11.25690 -11.23496 -11.22795  -1.07735
  Beta  occ. eigenvalues --   -1.01713  -0.83867  -0.70373  -0.65975  -0.60263
  Beta  occ. eigenvalues --   -0.48470  -0.43625  -0.37778
  Beta virt. eigenvalues --    0.02979   0.03242   0.04480   0.07284   0.07409
  Beta virt. eigenvalues --    0.07692   0.09011   0.09791   0.10484   0.11092
  Beta virt. eigenvalues --    0.11800   0.13619   0.13951   0.15305   0.15856

 Mulliken charges and spin densities:
               1          2
     1  C   -1.124825  -0.861190
     2  C    1.287164  -1.344320
     3  C   -1.667245   1.411571
     4  H    0.300679   0.095882
     5  H    0.302280   0.094186
     6  H    0.327411  -0.127280
     7  C    0.574536   1.731151
 Sum of Mulliken charges =  -0.00000   1.00000

 Dipole moment (field-independent basis, Debye):
    X=             -0.0245    Y=              0.0106    Z=              0.0015  Tot=              0.0267
 Quadrupole moment (field-independent basis, Debye-Ang):
   XX=            -15.6657   YY=            -24.1381   ZZ=            -25.9985
   XY=              0.0107   XZ=             -0.0023   YZ=             -0.0000

 =-153.7284357\CCSD=-153.7443009\CCSD(T)=-153.7778923\S2=1.377287\S2-1=
 Normal termination of Gaussian 16 at Sat Sep 26 00:36:04 2020.
