   * xtb version 6.2.2 (9d81278992624c895f80dd42a50cac0aa55982e2) compiled by '@Darwin' on 04/03/2020
          program call               : xtb --input C5_15_S_0.input C5_15_S_0.xyz --ohess --molden --namespace C5_15_S_0 output.out
          number of atoms            :                     5
          number of electrons        :                    20
          charge                     :                     0
          spin                       :                   0.0

   ID    Z sym.   atoms
    1    6 C      1-5

          :  Hamiltonian                  GFN2-xTB          :
 * total energy  :   -10.1194782 Eh     change        0.3915982E-08 Eh
 * total energy  :   -10.1910907 Eh     change       -0.7161250E-01 Eh
 * total energy  :   -10.2375943 Eh     change       -0.4650364E-01 Eh
 * total energy  :   -10.2455112 Eh     change       -0.7916882E-02 Eh
 * total energy  :   -10.2473807 Eh     change       -0.1869516E-02 Eh
 * total energy  :   -10.2475098 Eh     change       -0.1291141E-03 Eh
 * total energy  :   -10.2475111 Eh     change       -0.1247992E-05 Eh
   *** GEOMETRY OPTIMIZATION CONVERGED AFTER 7 ITERATIONS ***

 final structure:
================
5
 xtb: 6.2.2 (9d81278992624c895f80dd42a50cac0aa55982e2)
C        -0.80169792771657   -0.74810799281390    0.01185434141017
C         0.00996617546506    0.00426894023330    0.94303816567593
C        -0.00996185717729   -0.00426275190877   -0.94303706633938
C        -0.24703843638420    1.06840948760814   -0.00222318783933
C         1.04873304581299   -0.32030768311878   -0.00963225290739

          :  Hamiltonian                  GFN2-xTB          :
         :: gradient norm              0.000660990729 Eh/a0 ::
         :: HOMO-LUMO gap              2.780668716876 eV    ::
         :: SCC energy               -10.391670001217 Eh    ::
         :: -> dispersion             -0.002397573702 Eh    ::
         :: repulsion energy           0.144158913565 Eh    ::

    * Orbital Energies and Occupations

         #    Occupation            Energy/Eh            Energy/eV
      -------------------------------------------------------------
         1        2.0000           -0.7768864             -21.1402
         2        2.0000           -0.6564132             -17.8619
         3        2.0000           -0.6564122             -17.8619
         4        2.0000           -0.6479607             -17.6319
         5        2.0000           -0.5376314             -14.6297
         6        2.0000           -0.5376298             -14.6297
         7        2.0000           -0.4991883             -13.5836
         8        2.0000           -0.4781868             -13.0121
         9        2.0000           -0.4751512             -12.9295
        10        2.0000           -0.4751511             -12.9295 (HOMO)
        11                         -0.3729634             -10.1489 (LUMO)
        12                         -0.3268671              -8.8945
        13                         -0.3268637              -8.8944
        14                         -0.2971389              -8.0856
        15                          0.0150019               0.4082
        16                          0.0150079               0.4084
        17                          0.1089561               2.9648
        18                          0.1089579               2.9649
        19                          0.1400516               3.8110
        20                          0.5499638              14.9653
      -------------------------------------------------------------
                  HL-Gap            0.1021877 Eh            2.7807 eV

     #   Z        covCN         q      C6AA      Î±(0)
     1   6 C      3.338    -0.054    26.696     8.177
     2   6 C      3.651     0.080    19.542     6.349
     3   6 C      3.651     0.080    19.542     6.349
     4   6 C      3.338    -0.054    26.696     8.177
     5   6 C      3.338    -0.054    26.696     8.177

Wiberg/Mayer (AO) data.
largest (>0.10) Wiberg bond orders for each atom
          total WBO             WBO to atom ...

molecular dipole:
                 x           y           z       tot (Debye)
 q only:        0.000       0.000      -0.000
   full:        0.000       0.000      -0.000       0.000

 projected vibrational frequencies (cm-1)
eigval :       -0.00    -0.00    -0.00     0.00     0.00     0.00
eigval :      465.71   466.21   664.38   881.83   881.84  1122.50
eigval :     1136.17  1136.42  1397.71

   temp. (K)  partition function   enthalpy   heat capacity  entropy
                                   cal/mol     cal/K/mol   cal/K/mol   J/K/mol
  10.00  VIB   1.00                    0.000      0.000     -0.001
         ROT   22.2                   29.809      2.981      9.137
         INT   22.2                   29.809      2.981      9.137
         TR   0.277E+25               49.681      4.968     21.322
         TOT                          79.4904     7.9490    30.4585   127.4385

       T/K    H(0)-H(T)+PV         H(T)/Eh          T*S/Eh         G(T)/Eh
   ------------------------------------------------------------------------
    298.15    0.459492E-02    0.231683E-01    0.283987E-01   -0.523038E-02
    120.00    0.153736E-02    0.201108E-01    0.962124E-02    0.104895E-01
    100.00    0.127221E-02    0.198456E-01    0.777618E-02    0.120694E-01
     80.00    0.101440E-02    0.195878E-01    0.599098E-02    0.135968E-01
     60.00    0.760116E-03    0.193335E-01    0.427387E-02    0.150596E-01
     40.00    0.506704E-03    0.190801E-01    0.264381E-02    0.164363E-01
     20.00    0.253352E-03    0.188268E-01    0.114634E-02    0.176804E-01
     10.00    0.126676E-03    0.187001E-01    0.485388E-03    0.182147E-01 (used)
   ------------------------------------------------------------------------

         :::::::::::::::::::::::::::::::::::::::::::::::::::::
         ::                  THERMODYNAMIC                  ::
         :::::::::::::::::::::::::::::::::::::::::::::::::::::
         :: total free energy         -10.229296380376 Eh   ::
         ::.................................................::
         :: total energy              -10.247511070266 Eh   ::
         :: zero point energy           0.018573401433 Eh   ::
         :: G(RRHO) w/o ZPVE           -0.000358711543 Eh   ::
         :: G(RRHO) contrib.            0.018214689890 Eh   ::
         :::::::::::::::::::::::::::::::::::::::::::::::::::::

           -------------------------------------------------
          | TOTAL ENERGY              -10.247511070266 Eh   |
          | TOTAL ENTHALPY            -10.228810992817 Eh   |
          | TOTAL FREE ENERGY         -10.229296380376 Eh   |
          | GRADIENT NORM               0.000660983294 Eh/Î± |
          | HOMO-LUMO GAP               2.780667999686 eV   |
           -------------------------------------------------

 * finished run on 2020/05/12 at 11:44:38.070
