   * xtb version 6.2.2 (9d81278992624c895f80dd42a50cac0aa55982e2) compiled by '@Darwin' on 04/03/2020
          program call               : xtb --input C5_1_S_0.input C5_1_S_0.xyz --ohess --molden --namespace C5_1_S_0 output.out
          number of atoms            :                     5
          number of electrons        :                    20
          charge                     :                     0
          spin                       :                   0.0

   ID    Z sym.   atoms
    1    6 C      1-5

          :  Hamiltonian                  GFN2-xTB          :
 * total energy  :   -10.0231290 Eh     change       -0.2505258E-08 Eh
 * total energy  :   -10.1307530 Eh     change       -0.1076240E+00 Eh
 * total energy  :   -10.0877880 Eh     change        0.4296502E-01 Eh
 * total energy  :   -10.1675448 Eh     change       -0.7975678E-01 Eh
 * total energy  :   -10.1839556 Eh     change       -0.1641075E-01 Eh
 * total energy  :   -10.1929518 Eh     change       -0.8996196E-02 Eh
 * total energy  :   -10.2003138 Eh     change       -0.7362021E-02 Eh
 * total energy  :   -10.2208323 Eh     change       -0.2051856E-01 Eh
 * total energy  :    -9.8943423 Eh     change        0.3264900E+00 Eh
 * total energy  :   -10.2308316 Eh     change       -0.3364893E+00 Eh
 * total energy  :   -10.3284725 Eh     change       -0.3372760E-03 Eh
 * total energy  :   -10.3286481 Eh     change       -0.1755664E-03 Eh
 * total energy  :   -10.3286759 Eh     change       -0.2784266E-04 Eh
 * total energy  :   -10.3287057 Eh     change       -0.2983762E-04 Eh
 * total energy  :   -10.3287176 Eh     change       -0.1186360E-04 Eh
 * total energy  :   -10.3287197 Eh     change       -0.2150661E-05 Eh
 * total energy  :   -10.3287279 Eh     change       -0.8186613E-05 Eh
 * total energy  :   -10.3287331 Eh     change       -0.5125437E-05 Eh
 * total energy  :   -10.3287346 Eh     change       -0.1561934E-05 Eh
   *** GEOMETRY OPTIMIZATION CONVERGED AFTER 37 ITERATIONS ***

 final structure:
================
5
 xtb: 6.2.2 (9d81278992624c895f80dd42a50cac0aa55982e2)
C        -1.27837006961722    0.13625920517617    0.01736727221099
C        -0.00004721202542   -0.00113807425132   -0.00008410720273
C         1.27834070921714   -0.13632513408896   -0.01771952199425
C        -2.54640563126819    0.27328087378615    0.03307608906563
C         2.54648220369369   -0.27207687062205   -0.03263973207963

          :  Hamiltonian                  GFN2-xTB          :
         :: gradient norm              0.000287232566 Eh/a0 ::
         :: HOMO-LUMO gap              1.577739891515 eV    ::
         :: SCC energy               -10.598836157592 Eh    ::
         :: -> dispersion             -0.002738266752 Eh    ::
         :: repulsion energy           0.270102888516 Eh    ::

    * Orbital Energies and Occupations

         #    Occupation            Energy/Eh            Energy/eV
      -------------------------------------------------------------
         1        2.0000           -0.6928724             -18.8540
         2        2.0000           -0.6801890             -18.5089
         3        2.0000           -0.6590169             -17.9328
         4        2.0000           -0.6136625             -16.6986
         5        2.0000           -0.5388614             -14.6632
         6        2.0000           -0.5388613             -14.6632
         7        2.0000           -0.4709027             -12.8139
         8        2.0000           -0.4709023             -12.8139
         9        2.0000           -0.4636698             -12.6171
        10        2.0000           -0.4471225             -12.1668 (HOMO)
        11                         -0.3891414             -10.5891 (LUMO)
        12                         -0.3891413             -10.5891
        13                         -0.2441925              -6.6448
        14                         -0.2441921              -6.6448
        15                         -0.1167971              -3.1782
        16                         -0.1167966              -3.1782
        17                          0.0893067               2.4302
        18                          0.4584270              12.4744
        19                          0.9479704              25.7956
        20                          1.4162431              38.5379
      -------------------------------------------------------------
                  HL-Gap            0.0579810 Eh            1.5777 eV

     #   Z        covCN         q      C6AA      Î±(0)
     1   6 C      1.963     0.048    29.858     8.824
     2   6 C      1.964     0.112    28.309     8.592
     3   6 C      1.963     0.048    29.858     8.824
     4   6 C      0.982    -0.103    39.220    10.519
     5   6 C      0.982    -0.103    39.219    10.519

Wiberg/Mayer (AO) data.
largest (>0.10) Wiberg bond orders for each atom
          total WBO             WBO to atom ...

molecular dipole:
                 x           y           z       tot (Debye)
 q only:        0.000      -0.000      -0.000
   full:        0.000      -0.001      -0.000       0.004

   temp. (K)  partition function   enthalpy   heat capacity  entropy
                                   cal/mol     cal/K/mol   cal/K/mol   J/K/mol
  10.00  VIB   1.00                    0.000      0.000     -0.068
         ROT   40.7                   19.873      1.987      9.351
         INT   40.7                   19.873      1.988      9.283
         TR   0.277E+25               49.681      4.968     21.322
         TOT                          69.5544     6.9558    30.6048   128.0505

       T/K    H(0)-H(T)+PV         H(T)/Eh          T*S/Eh         G(T)/Eh
   ------------------------------------------------------------------------
    298.15    0.639259E-02    0.249217E-01    0.316897E-01   -0.676799E-02
    120.00    0.189847E-02    0.204276E-01    0.100767E-01    0.103509E-01
    100.00    0.148928E-02    0.200184E-01    0.802704E-02    0.119913E-01
     80.00    0.110977E-02    0.196389E-01    0.608541E-02    0.135534E-01
     60.00    0.766736E-03    0.192958E-01    0.427006E-02    0.150258E-01
     40.00    0.469264E-03    0.189983E-01    0.260678E-02    0.163916E-01
     20.00    0.222324E-03    0.187514E-01    0.113235E-02    0.176191E-01
     10.00    0.110842E-03    0.186399E-01    0.487719E-03    0.181522E-01 (used)
   ------------------------------------------------------------------------

         :::::::::::::::::::::::::::::::::::::::::::::::::::::
         ::                  THERMODYNAMIC                  ::
         :::::::::::::::::::::::::::::::::::::::::::::::::::::
         :: total free energy         -10.310582417781 Eh   ::
         ::.................................................::
         :: total energy              -10.328734624125 Eh   ::
         :: zero point energy           0.018529083032 Eh   ::
         :: G(RRHO) w/o ZPVE           -0.000376876688 Eh   ::
         :: G(RRHO) contrib.            0.018152206345 Eh   ::
         :::::::::::::::::::::::::::::::::::::::::::::::::::::

           -------------------------------------------------
          | TOTAL ENERGY              -10.328734624125 Eh   |
          | TOTAL ENTHALPY            -10.310094699134 Eh   |
          | TOTAL FREE ENERGY         -10.310582417781 Eh   |
          | GRADIENT NORM               0.000284126282 Eh/Î± |
          | HOMO-LUMO GAP               1.577744616732 eV   |
           -------------------------------------------------

 * finished run on 2020/05/12 at 11:44:31.231
