   * xtb version 6.2.2 (9d81278992624c895f80dd42a50cac0aa55982e2) compiled by '@Darwin' on 04/03/2020
          program call               : xtb --input H2C2N1_9_S_1.input H2C2N1_9_S_1.xyz --ohess --molden --namespace H2C2N1_9_S_1 output.out
          number of atoms            :                     5
          number of electrons        :                    15
          charge                     :                     0
          spin                       :                   0.5

   ID    Z sym.   atoms
    1    7 N      1
    2    6 C      2, 3
    3    1 H      4, 5

          :  Hamiltonian                  GFN2-xTB          :
 * total energy  :    -7.9029212 Eh     change       -0.1811014E-09 Eh
 * total energy  :    -7.9495553 Eh     change       -0.4663404E-01 Eh
 * total energy  :    -7.9725995 Eh     change       -0.2304418E-01 Eh
 * total energy  :    -8.0221798 Eh     change       -0.4958033E-01 Eh
 * total energy  :    -8.0371544 Eh     change       -0.1497463E-01 Eh
 * total energy  :    -8.0401998 Eh     change       -0.3045355E-02 Eh
 * total energy  :    -8.0421130 Eh     change       -0.1913257E-02 Eh
 * total energy  :    -8.0421351 Eh     change       -0.2207345E-04 Eh
 * total energy  :    -8.0413407 Eh     change        0.7944096E-03 Eh
 * total energy  :    -8.0433228 Eh     change       -0.1982067E-02 Eh
 * total energy  :    -8.0433291 Eh     change       -0.6384958E-05 Eh
 * total energy  :    -8.0434529 Eh     change       -0.1237674E-03 Eh
 * total energy  :    -8.0434766 Eh     change       -0.2365278E-04 Eh
 * total energy  :    -8.0434994 Eh     change       -0.2287854E-04 Eh
 * total energy  :    -8.0435172 Eh     change       -0.1775918E-04 Eh
 * total energy  :    -8.0435360 Eh     change       -0.1874695E-04 Eh
 * total energy  :    -8.0435572 Eh     change       -0.2128839E-04 Eh
 * total energy  :    -8.0435660 Eh     change       -0.8793236E-05 Eh
 * total energy  :    -8.0435673 Eh     change       -0.1250630E-05 Eh
   *** GEOMETRY OPTIMIZATION CONVERGED AFTER 19 ITERATIONS ***

 final structure:
================
5
 xtb: 6.2.2 (9d81278992624c895f80dd42a50cac0aa55982e2)
N        -0.00023835238166    0.00649784536519    0.00721363114037
C        -1.16954512663684    0.26039823652066   -0.20428069335124
C         1.16997095102076   -0.22421637688741    0.23852591357868
H        -2.09455691031029   -0.13351299473407    0.13552432245658
H         2.09436943830803    0.09083328973565   -0.17698417382440

          :  Hamiltonian                  GFN2-xTB          :
         :: gradient norm              0.000362901029 Eh/a0 ::
         :: HOMO-LUMO gap              2.946092326138 eV    ::
         :: SCC energy                -8.210098871276 Eh    ::
         :: -> dispersion             -0.001520752470 Eh    ::
         :: repulsion energy           0.166531713028 Eh    ::

    * Orbital Energies and Occupations

         #    Occupation            Energy/Eh            Energy/eV
      -------------------------------------------------------------
         1        2.0000           -0.6609104             -17.9843
         2        2.0000           -0.6150046             -16.7351
         3        2.0000           -0.5326874             -14.4952
         4        2.0000           -0.5305192             -14.4362
         5        2.0000           -0.5188776             -14.1194
         6        2.0000           -0.4826340             -13.1331
         7        2.0000           -0.3568389              -9.7101
         8        1.0000           -0.3298570              -8.9759 (HOMO)
         9                         -0.2215901              -6.0298 (LUMO)
        10                         -0.1613875              -4.3916
        11                          0.1140309               3.1029
        12                          0.2829453               7.6993
        13                          0.4427809              12.0487
        14                          1.1258413              30.6357
      -------------------------------------------------------------
                  HL-Gap            0.1082669 Eh            2.9461 eV

     #   Z        covCN         q      C6AA      Î±(0)
     1   7 N      1.821     0.075    20.575     6.721
     2   6 C      1.849    -0.111    34.230     9.451
     3   6 C      1.849    -0.110    34.221     9.450
     4   1 H      0.927     0.073     2.056     2.242
     5   1 H      0.927     0.073     2.054     2.241

Wiberg/Mayer (AO) data.
largest (>0.10) Wiberg bond orders for each atom
          total WBO             WBO to atom ...

molecular dipole:
                 x           y           z       tot (Debye)
 q only:        0.001      -0.013      -0.012
   full:        0.001      -0.027      -0.025       0.095

 projected vibrational frequencies (cm-1)
eigval :       -0.00    -0.00    -0.00     0.00     0.00     0.00
eigval :      118.19   374.28   407.07   469.28   849.71  1405.24
eigval :     2037.45  3215.04  3216.65

   temp. (K)  partition function   enthalpy   heat capacity  entropy
                                   cal/mol     cal/K/mol   cal/K/mol   J/K/mol
  10.00  VIB   1.00                    0.000      0.000     -0.023
         ROT   9.92                   29.809      2.981      7.541
         INT   9.92                   29.809      2.981      7.518
         TR   0.151E+25               49.681      4.968     20.115
         TOT                          79.4904     7.9491    27.6329   115.6160

       T/K    H(0)-H(T)+PV         H(T)/Eh          T*S/Eh         G(T)/Eh
   ------------------------------------------------------------------------
    298.15    0.543588E-02    0.329856E-01    0.288305E-01    0.415511E-02
    120.00    0.173390E-02    0.292836E-01    0.939469E-02    0.198889E-01
    100.00    0.140275E-02    0.289524E-01    0.752793E-02    0.214245E-01
     80.00    0.109012E-02    0.286398E-01    0.574408E-02    0.228957E-01
     60.00    0.794029E-03    0.283437E-01    0.405309E-02    0.242906E-01
     40.00    0.514490E-03    0.280642E-01    0.247575E-02    0.255884E-01
     20.00    0.253461E-03    0.278032E-01    0.105709E-02    0.267461E-01
     10.00    0.126676E-03    0.276764E-01    0.440358E-03    0.272360E-01 (used)
   ------------------------------------------------------------------------

         :::::::::::::::::::::::::::::::::::::::::::::::::::::
         ::                  THERMODYNAMIC                  ::
         :::::::::::::::::::::::::::::::::::::::::::::::::::::
         :: total free energy          -8.016331284383 Eh   ::
         ::.................................................::
         :: total energy               -8.043567291031 Eh   ::
         :: zero point energy           0.027549688880 Eh   ::
         :: G(RRHO) w/o ZPVE           -0.000313682232 Eh   ::
         :: G(RRHO) contrib.            0.027236006648 Eh   ::
         :::::::::::::::::::::::::::::::::::::::::::::::::::::

           -------------------------------------------------
          | TOTAL ENERGY               -8.043567291031 Eh   |
          | TOTAL ENTHALPY             -8.015890926114 Eh   |
          | TOTAL FREE ENERGY          -8.016331284383 Eh   |
          | GRADIENT NORM               0.000361113893 Eh/Î± |
          | HOMO-LUMO GAP               2.946092101117 eV   |
           -------------------------------------------------

 * finished run on 2020/05/12 at 11:44:47.707
