   * xtb version 6.2.2 (9d81278992624c895f80dd42a50cac0aa55982e2) compiled by '@Darwin' on 04/03/2020
          program call               : xtb --input H2N1_0_S_3.input H2N1_0_S_3.xyz --ohess --molden --namespace H2N1_0_S_3 output.out
          number of atoms            :                     3
          number of electrons        :                     7
          charge                     :                     0
          spin                       :                   1.5

   ID    Z sym.   atoms
    1    7 N      1
    2    1 H      2, 3

          :  Hamiltonian                  GFN2-xTB          :
 * total energy  :    -3.3076738 Eh     change        0.3386358E-10 Eh
 * total energy  :    -3.4816406 Eh     change       -0.1739667E+00 Eh
 * total energy  :    -3.5180557 Eh     change       -0.3641511E-01 Eh
 * total energy  :    -3.5468154 Eh     change       -0.2875975E-01 Eh
 * total energy  :    -3.5495272 Eh     change       -0.2711836E-02 Eh
 * total energy  :    -3.5512776 Eh     change       -0.1750389E-02 Eh
 * total energy  :    -3.5549713 Eh     change       -0.3693668E-02 Eh
 * total energy  :    -3.5579089 Eh     change       -0.2937626E-02 Eh
 * total energy  :    -3.5588885 Eh     change       -0.9796049E-03 Eh
 * total energy  :    -3.5589376 Eh     change       -0.4905858E-04 Eh
 * total energy  :    -3.5589386 Eh     change       -0.9799028E-06 Eh
   *** GEOMETRY OPTIMIZATION CONVERGED AFTER 11 ITERATIONS ***

 final structure:
================
3
 xtb: 6.2.2 (9d81278992624c895f80dd42a50cac0aa55982e2)
N         0.00006750677246    0.00132983830374    0.00000000000000
H        -1.38983846002750   -0.00605923608899    0.00000000000000
H         1.38977095325504    0.00472939778525    0.00000000000000

          :  Hamiltonian                  GFN2-xTB          :
         :: gradient norm              0.000239371301 Eh/a0 ::
         :: HOMO-LUMO gap              4.422316180250 eV    ::
         :: SCC energy                -3.560134874153 Eh    ::
         :: -> dispersion             -0.000391760531 Eh    ::
         :: repulsion energy           0.001196304740 Eh    ::

    * Orbital Energies and Occupations

         #    Occupation            Energy/Eh            Energy/eV
      -------------------------------------------------------------
         1        2.0000           -0.5977615             -16.2659
         2        2.0000           -0.4992344             -13.5849
         3        1.0000           -0.4603444             -12.5266
         4        1.0000           -0.4603442             -12.5266
         5        1.0000           -0.3044372              -8.2842 (HOMO)
         6                         -0.1419201              -3.8618 (LUMO)
      -------------------------------------------------------------
                  HL-Gap            0.1625171 Eh            4.4223 eV

     #   Z        covCN         q      C6AA      α(0)
     1   7 N      0.775    -0.059    23.049     7.011
Molecule has the following symmetry elements: (i) (Cinf) (C2) 2*(sigma)
It seems to be the Dinfh point group
     2   1 H      0.387     0.030     5.311     4.114
     3   1 H      0.388     0.030     5.301     4.110

Wiberg/Mayer (AO) data.
largest (>0.10) Wiberg bond orders for each atom
          total WBO             WBO to atom ...

molecular dipole:
                 x           y           z       tot (Debye)
 q only:        0.000      -0.000      -0.000
   full:        0.000      -0.000      -0.000       0.001

   temp. (K)  partition function   enthalpy   heat capacity  entropy
                                   cal/mol     cal/K/mol   cal/K/mol   J/K/mol
  10.00  VIB   1.15                    5.992      1.413      1.041
         ROT  0.803                   19.873      1.987      1.551
         INT  0.920                   25.864      3.400      2.592
         TR   0.381E+24               49.681      4.968     17.385
         TOT                          75.5457     8.3685    19.9771    83.5842

       T/K    H(0)-H(T)+PV         H(T)/Eh          T*S/Eh         G(T)/Eh
   ------------------------------------------------------------------------
    298.15    0.434018E-02    0.125188E-01    0.224725E-01   -0.995373E-02
    120.00    0.167873E-02    0.985734E-02    0.759946E-02    0.225788E-02
    100.00    0.139368E-02    0.957229E-02    0.610162E-02    0.347067E-02
     80.00    0.110891E-02    0.928752E-02    0.465502E-02    0.463250E-02
     60.00    0.824349E-03    0.900296E-02    0.327249E-02    0.573047E-02
     40.00    0.540250E-03    0.871886E-02    0.197611E-02    0.674275E-02
     20.00    0.257937E-03    0.843655E-02    0.812365E-03    0.762418E-02
     10.00    0.120390E-03    0.829900E-02    0.318356E-03    0.798065E-02 (used)
   ------------------------------------------------------------------------

         :::::::::::::::::::::::::::::::::::::::::::::::::::::
         ::                  THERMODYNAMIC                  ::
         :::::::::::::::::::::::::::::::::::::::::::::::::::::
         :: total free energy          -3.550957928599 Eh   ::
         ::.................................................::
         :: total energy               -3.558938575602 Eh   ::
         :: zero point energy           0.008178612722 Eh   ::
         :: G(RRHO) w/o ZPVE           -0.000197965720 Eh   ::
         :: G(RRHO) contrib.            0.007980647002 Eh   ::
         :::::::::::::::::::::::::::::::::::::::::::::::::::::

           -------------------------------------------------
          | TOTAL ENERGY               -3.558938575602 Eh   |
          | TOTAL ENTHALPY             -3.550639573083 Eh   |
          | TOTAL FREE ENERGY          -3.550957928599 Eh   |
          | GRADIENT NORM               0.000239370978 Eh/α |
          | HOMO-LUMO GAP               4.422316142176 eV   |
           -------------------------------------------------

 * finished run on 2020/05/12 at 11:44:40.666
