   * xtb version 6.2.2 (9d81278992624c895f80dd42a50cac0aa55982e2) compiled by '@Darwin' on 04/03/2020
          program call               : xtb --input H1C3N1_9_S_2.input H1C3N1_9_S_2.xyz --ohess --molden --namespace H1C3N1_9_S_2 output.out
          number of atoms            :                     5
          number of electrons        :                    18
          charge                     :                     0
          spin                       :                   1.0

   ID    Z sym.   atoms
    1    6 C      1, 3, 4
    2    7 N      2
    3    1 H      5

          :  Hamiltonian                  GFN2-xTB          :
 * total energy  :    -9.4001721 Eh     change       -0.2542855E-10 Eh
 * total energy  :    -9.5054831 Eh     change       -0.1053111E+00 Eh
 * total energy  :    -9.5074866 Eh     change       -0.2003482E-02 Eh
 * total energy  :    -9.5393764 Eh     change       -0.3188977E-01 Eh
 * total energy  :    -9.5419611 Eh     change       -0.2584737E-02 Eh
 * total energy  :    -9.5474094 Eh     change       -0.5448259E-02 Eh
 * total energy  :    -9.5487561 Eh     change       -0.1346692E-02 Eh
 * total energy  :    -9.5477210 Eh     change        0.1035088E-02 Eh
 * total energy  :    -9.5505122 Eh     change       -0.2791199E-02 Eh
 * total energy  :    -9.5508386 Eh     change       -0.3264713E-03 Eh
 * total energy  :    -9.5514097 Eh     change       -0.3122194E-03 Eh
 * total energy  :    -9.5516357 Eh     change       -0.2260830E-03 Eh
 * total energy  :    -9.5518254 Eh     change       -0.1896448E-03 Eh
 * total energy  :    -9.5517786 Eh     change        0.4678786E-04 Eh
 * total energy  :    -9.5518521 Eh     change       -0.7354610E-04 Eh
 * total energy  :    -9.5518602 Eh     change       -0.8034423E-05 Eh
 * total energy  :    -9.5518655 Eh     change       -0.5301085E-05 Eh
 * total energy  :    -9.5518676 Eh     change       -0.2085856E-05 Eh
 * total energy  :    -9.5518696 Eh     change       -0.2023188E-05 Eh
   *** GEOMETRY OPTIMIZATION CONVERGED AFTER 20 ITERATIONS ***

 final structure:
================
5
 xtb: 6.2.2 (9d81278992624c895f80dd42a50cac0aa55982e2)
C        -1.10761292716034    0.21854519376606    0.74586654559843
N        -0.14486224582061    0.04391503808100    0.00401805915045
C         1.11338119924217   -0.25362930547357    0.09490833381169
C         2.22714860684858   -0.47883453695475   -0.36227763254460
H        -2.08805463310979    0.47000461058127    0.38050369398403

          :  Hamiltonian                  GFN2-xTB          :
         :: gradient norm              0.000690311892 Eh/a0 ::
         :: HOMO-LUMO gap              1.203352694661 eV    ::
         :: SCC energy                -9.758154784066 Eh    ::
         :: -> dispersion             -0.002117790831 Eh    ::
         :: repulsion energy           0.206285542355 Eh    ::

    * Orbital Energies and Occupations

         #    Occupation            Energy/Eh            Energy/eV
      -------------------------------------------------------------
         1        2.0000           -0.6788126             -18.4714
         2        2.0000           -0.6478877             -17.6299
         3        2.0000           -0.6051380             -16.4666
         4        2.0000           -0.5365984             -14.6016
         5        2.0000           -0.5350544             -14.5596
         6        2.0000           -0.5239553             -14.2575
         7        2.0000           -0.4382948             -11.9266
         8        2.0000           -0.4283645             -11.6564
         9        1.0000           -0.4070382             -11.0761
        10        1.0000           -0.3246327              -8.8337 (HOMO)
        11                         -0.2804103              -7.6304 (LUMO)
        12                         -0.1718933              -4.6775
        13                         -0.1327448              -3.6122
        14                          0.1155971               3.1456
        15                          0.2977900               8.1033
        16                          0.6960945              18.9417
Molecule has the following symmetry elements: (sigma)
It seems to be the Cs point group
        17                          1.0950362              29.7975
      -------------------------------------------------------------
                  HL-Gap            0.0442224 Eh            1.2034 eV

     #   Z        covCN         q      C6AA      Î±(0)
     1   6 C      1.863    -0.050    32.474     9.205
     2   7 N      1.823    -0.004    22.026     6.954
     3   6 C      1.918     0.056    29.687     8.799
     4   6 C      0.983    -0.088    38.712    10.452
     5   1 H      0.926     0.086     1.921     2.167

Wiberg/Mayer (AO) data.
largest (>0.10) Wiberg bond orders for each atom
          total WBO             WBO to atom ...

molecular dipole:
                 x           y           z       tot (Debye)
 q only:       -0.487       0.108       0.062
   full:       -0.545       0.121       0.066       1.429

 projected vibrational frequencies (cm-1)
eigval :       -0.00    -0.00    -0.00     0.00     0.00     0.00
eigval :      108.50   263.03   425.50   564.31   893.78  1081.82
eigval :     1863.02  2020.51  3043.80

   temp. (K)  partition function   enthalpy   heat capacity  entropy
                                   cal/mol     cal/K/mol   cal/K/mol   J/K/mol
  10.00  VIB   1.00                    0.000      0.000     -0.028
         ROT   61.6                   29.809      2.981     11.170
         INT   61.6                   29.809      2.981     11.142
         TR   0.217E+25               49.681      4.968     20.838
         TOT                          79.4905     7.9491    31.9795   133.8023

       T/K    H(0)-H(T)+PV         H(T)/Eh          T*S/Eh         G(T)/Eh
   ------------------------------------------------------------------------
    298.15    0.551353E-02    0.288973E-01    0.311234E-01   -0.222609E-02
    120.00    0.177348E-02    0.251572E-01    0.102930E-01    0.148642E-01
    100.00    0.143101E-02    0.248148E-01    0.826649E-02    0.165483E-01
     80.00    0.110697E-02    0.244907E-01    0.632500E-02    0.181657E-01
     60.00    0.801906E-03    0.241857E-01    0.448129E-02    0.197044E-01
     40.00    0.516983E-03    0.239008E-01    0.275698E-02    0.211438E-01
     20.00    0.253554E-03    0.236373E-01    0.119601E-02    0.224413E-01
     10.00    0.126676E-03    0.235104E-01    0.509626E-03    0.230008E-01 (used)
   ------------------------------------------------------------------------

         :::::::::::::::::::::::::::::::::::::::::::::::::::::
         ::                  THERMODYNAMIC                  ::
         :::::::::::::::::::::::::::::::::::::::::::::::::::::
         :: total free energy          -9.528868767015 Eh   ::
         ::.................................................::
         :: total energy               -9.551869587802 Eh   ::
         :: zero point energy           0.023383770828 Eh   ::
         :: G(RRHO) w/o ZPVE           -0.000382950041 Eh   ::
         :: G(RRHO) contrib.            0.023000820787 Eh   ::
         :::::::::::::::::::::::::::::::::::::::::::::::::::::

           -------------------------------------------------
          | TOTAL ENERGY               -9.551869587802 Eh   |
          | TOTAL ENTHALPY             -9.528359140877 Eh   |
          | TOTAL FREE ENERGY          -9.528868767015 Eh   |
          | GRADIENT NORM               0.000690438341 Eh/Î± |
          | HOMO-LUMO GAP               1.203353455259 eV   |
           -------------------------------------------------

 * finished run on 2020/05/12 at 11:44:53.978
