   * xtb version 6.2.2 (9d81278992624c895f80dd42a50cac0aa55982e2) compiled by '@Darwin' on 04/03/2020
          program call               : xtb --input H1C3N1_4_S_0.input H1C3N1_4_S_0.xyz --ohess --molden --namespace H1C3N1_4_S_0 output.out
          number of atoms            :                     5
          number of electrons        :                    18
          charge                     :                     0
          spin                       :                   0.0

   ID    Z sym.   atoms
    1    6 C      1, 3, 4
    2    7 N      2
    3    1 H      5

          :  Hamiltonian                  GFN2-xTB          :
 * total energy  :    -9.2576243 Eh     change       -0.4102745E-09 Eh
 * total energy  :    -9.2777678 Eh     change       -0.2014354E-01 Eh
 * total energy  :    -9.3231555 Eh     change       -0.4538770E-01 Eh
 * total energy  :    -9.4177362 Eh     change       -0.9458065E-01 Eh
 * total energy  :    -9.3966343 Eh     change        0.2110190E-01 Eh
 * total energy  :    -9.4341069 Eh     change       -0.3747263E-01 Eh
 * total energy  :    -9.4357093 Eh     change       -0.1602336E-02 Eh
 * total energy  :    -9.1224744 Eh     change        0.3132349E+00 Eh
 * total energy  :    -9.4439162 Eh     change       -0.3214418E+00 Eh
 * total energy  :    -9.4602147 Eh     change       -0.1629848E-01 Eh
 * total energy  :    -9.5338145 Eh     change       -0.5536373E-02 Eh
 * total energy  :    -9.5375116 Eh     change       -0.3697092E-02 Eh
 * total energy  :    -9.5378188 Eh     change       -0.3071788E-03 Eh
 * total energy  :    -9.5378535 Eh     change       -0.3469811E-04 Eh
 * total energy  :    -9.5378730 Eh     change       -0.1947469E-04 Eh
 * total energy  :    -9.5378893 Eh     change       -0.1631380E-04 Eh
 * total energy  :    -9.5378987 Eh     change       -0.9456746E-05 Eh
 * total energy  :    -9.5379038 Eh     change       -0.5029824E-05 Eh
 * total energy  :    -9.5379056 Eh     change       -0.1887726E-05 Eh
   *** GEOMETRY OPTIMIZATION CONVERGED AFTER 23 ITERATIONS ***

 final structure:
================
5
 xtb: 6.2.2 (9d81278992624c895f80dd42a50cac0aa55982e2)
C         0.98925701963388    0.18612744672394   -0.50598158448136
N         0.09325862479349   -0.29112560331688    0.45369852240560
C        -0.24958446296475    0.74672123803803   -0.83884453425546
C        -0.84838621067470   -0.48738290573904   -0.55885802515559
H         0.01545502921208   -0.15434017570605    1.44998562148681

          :  Hamiltonian                  GFN2-xTB          :
         :: gradient norm              0.000253809437 Eh/a0 ::
         :: HOMO-LUMO gap              3.243787034561 eV    ::
         :: SCC energy                -9.655976163641 Eh    ::
         :: -> dispersion             -0.002054575470 Eh    ::
         :: repulsion energy           0.118070495572 Eh    ::

    * Orbital Energies and Occupations

         #    Occupation            Energy/Eh            Energy/eV
      -------------------------------------------------------------
         1        2.0000           -0.7417502             -20.1840
         2        2.0000           -0.6528759             -17.7657
         3        2.0000           -0.6430978             -17.4996
         4        2.0000           -0.5943557             -16.1732
         5        2.0000           -0.5308986             -14.4465
         6        2.0000           -0.5197132             -14.1421
         7        2.0000           -0.4600303             -12.5181
         8        2.0000           -0.4275890             -11.6353
         9        2.0000           -0.4115434             -11.1987 (HOMO)
        10                         -0.2923364              -7.9549 (LUMO)
        11                         -0.2865568              -7.7976
        12                         -0.2535216              -6.8987
        13                         -0.0489024              -1.3307
        14                          0.0448447               1.2203
        15                          0.1995154               5.4291
        16                          0.2388455               6.4993
        17                          0.5080786              13.8255
      -------------------------------------------------------------
                  HL-Gap            0.1192070 Eh            3.2438 eV

     #   Z        covCN         q      C6AA      Î±(0)
     1   6 C      2.466    -0.089    30.547     9.022
     2   7 N      3.514     0.029    20.727     6.762
     3   6 C      2.795    -0.020    28.481     8.742
     4   6 C      2.466    -0.089    30.544     9.022
     5   1 H      0.860     0.169     1.282     1.773

Wiberg/Mayer (AO) data.
largest (>0.10) Wiberg bond orders for each atom
          total WBO             WBO to atom ...

molecular dipole:
                 x           y           z       tot (Debye)
 q only:       -0.005      -0.042       0.697
   full:       -0.053       0.039       1.340       3.411

 projected vibrational frequencies (cm-1)
eigval :       -0.00    -0.00    -0.00     0.00     0.00     0.00
eigval :      536.61   581.13   730.69   851.85   984.51  1082.12
eigval :     1318.86  1432.33  3407.65

   temp. (K)  partition function   enthalpy   heat capacity  entropy
                                   cal/mol     cal/K/mol   cal/K/mol   J/K/mol
  10.00  VIB   1.00                    0.000      0.000     -0.000
         ROT   81.7                   29.809      2.981     11.731
         INT   81.7                   29.809      2.981     11.731
         TR   0.217E+25               49.681      4.968     20.838
         TOT                          79.4904     7.9490    32.5687   136.2676

       T/K    H(0)-H(T)+PV         H(T)/Eh          T*S/Eh         G(T)/Eh
   ------------------------------------------------------------------------
    298.15    0.439426E-02    0.292849E-01    0.291030E-01    0.181994E-03
    120.00    0.152725E-02    0.264179E-01    0.100126E-01    0.164053E-01
    100.00    0.126858E-02    0.261593E-01    0.810820E-02    0.180511E-01
     80.00    0.101365E-02    0.259043E-01    0.625912E-02    0.196452E-01
     60.00    0.760065E-03    0.256508E-01    0.447556E-02    0.211752E-01
     40.00    0.506704E-03    0.253974E-01    0.277831E-02    0.226191E-01
     20.00    0.253352E-03    0.251440E-01    0.121359E-02    0.239305E-01
     10.00    0.126676E-03    0.250174E-01    0.519016E-03    0.244984E-01 (used)
   ------------------------------------------------------------------------

         :::::::::::::::::::::::::::::::::::::::::::::::::::::
         ::                  THERMODYNAMIC                  ::
         :::::::::::::::::::::::::::::::::::::::::::::::::::::
         :: total free energy          -9.513407290501 Eh   ::
         ::.................................................::
         :: total energy               -9.537905642608 Eh   ::
         :: zero point energy           0.024890691894 Eh   ::
         :: G(RRHO) w/o ZPVE           -0.000392339787 Eh   ::
         :: G(RRHO) contrib.            0.024498352107 Eh   ::
         :::::::::::::::::::::::::::::::::::::::::::::::::::::

           -------------------------------------------------
          | TOTAL ENERGY               -9.537905642608 Eh   |
          | TOTAL ENTHALPY             -9.512888274699 Eh   |
          | TOTAL FREE ENERGY          -9.513407290501 Eh   |
          | GRADIENT NORM               0.000253673450 Eh/Î± |
          | HOMO-LUMO GAP               3.243787074009 eV   |
           -------------------------------------------------

 * finished run on 2020/05/12 at 11:44:51.750
