   * xtb version 6.2.2 (9d81278992624c895f80dd42a50cac0aa55982e2) compiled by '@Darwin' on 04/03/2020
          program call               : xtb --input H2C2N1_4_S_1.input H2C2N1_4_S_1.xyz --ohess --molden --namespace H2C2N1_4_S_1 output.out
          number of atoms            :                     5
          number of electrons        :                    15
          charge                     :                     0
          spin                       :                   0.5

   ID    Z sym.   atoms
    1    6 C      1, 3
    2    7 N      2
    3    1 H      4, 5

          :  Hamiltonian                  GFN2-xTB          :
 * total energy  :    -7.9181426 Eh     change       -0.9052252E-09 Eh
 * total energy  :    -8.0129632 Eh     change       -0.9482055E-01 Eh
 * total energy  :    -8.0250747 Eh     change       -0.1211155E-01 Eh
 * total energy  :    -8.0653435 Eh     change       -0.4026875E-01 Eh
 * total energy  :    -8.0710949 Eh     change       -0.5751385E-02 Eh
 * total energy  :    -8.0724800 Eh     change       -0.1385124E-02 Eh
 * total energy  :    -8.0737839 Eh     change       -0.1303943E-02 Eh
 * total energy  :    -8.0751746 Eh     change       -0.1390653E-02 Eh
 * total energy  :    -8.0744746 Eh     change        0.7000052E-03 Eh
 * total energy  :    -8.0755793 Eh     change       -0.1104750E-02 Eh
 * total energy  :    -8.0757051 Eh     change       -0.1257441E-03 Eh
 * total energy  :    -8.0758107 Eh     change       -0.1055778E-03 Eh
 * total energy  :    -8.0758298 Eh     change       -0.1916661E-04 Eh
 * total energy  :    -8.0758553 Eh     change       -0.2551337E-04 Eh
 * total energy  :    -8.0758816 Eh     change       -0.2625953E-04 Eh
 * total energy  :    -8.0759169 Eh     change       -0.3528711E-04 Eh
 * total energy  :    -8.0759376 Eh     change       -0.2070630E-04 Eh
 * total energy  :    -8.0759423 Eh     change       -0.4743298E-05 Eh
   *** GEOMETRY OPTIMIZATION CONVERGED AFTER 18 ITERATIONS ***

 final structure:
================
5
 xtb: 6.2.2 (9d81278992624c895f80dd42a50cac0aa55982e2)
C        -0.08334094753080    0.08391662660762    0.02833888986743
N        -1.31273202634121    0.29256371530763    0.10019065396367
C         1.15123489246203    0.03855316717007    0.01863773108210
H        -1.95301421895703   -0.44109543222575   -0.17119770208896
H         2.19785230036701    0.02606192314042    0.02403042717575

          :  Hamiltonian                  GFN2-xTB          :
         :: gradient norm              0.000774662872 Eh/a0 ::
         :: HOMO-LUMO gap              5.664215704140 eV    ::
         :: SCC energy                -8.256343491289 Eh    ::
         :: -> dispersion             -0.001470195388 Eh    ::
         :: repulsion energy           0.180401281088 Eh    ::

    * Orbital Energies and Occupations

         #    Occupation            Energy/Eh            Energy/eV
      -------------------------------------------------------------
         1        2.0000           -0.6415996             -17.4588
         2        2.0000           -0.6102652             -16.6062
         3        2.0000           -0.5430917             -14.7783
         4        2.0000           -0.5106229             -13.8948
         5        2.0000           -0.4879018             -13.2765
         6        2.0000           -0.4660778             -12.6826
         7        1.9972           -0.3798694             -10.3368
         8        1.0028           -0.3686724             -10.0321 (HOMO)
         9                         -0.1605163              -4.3679 (LUMO)
        10                         -0.1337620              -3.6398
        11                          0.0667334               1.8159
        12                          0.1851869               5.0392
        13                          0.4898271              13.3289
        14                          1.3519145              36.7875
      -------------------------------------------------------------
                  HL-Gap            0.2081561 Eh            5.6642 eV

     #   Z        covCN         q      C6AA      Î±(0)
     1   6 C      1.891     0.098    28.688     8.650
     2   7 N      1.772    -0.246    27.235     7.728
     3   6 C      1.911    -0.109    34.146     9.437
     4   1 H      0.860     0.168     1.282     1.774
     5   1 H      0.928     0.090     1.883     2.146

Wiberg/Mayer (AO) data.
largest (>0.10) Wiberg bond orders for each atom
          total WBO             WBO to atom ...

molecular dipole:
                 x           y           z       tot (Debye)
 q only:        0.107      -0.265      -0.096
   full:        0.266      -0.536      -0.194       1.598

 projected vibrational frequencies (cm-1)
eigval :       -0.00    -0.00    -0.00     0.00     0.00     0.00
eigval :      184.69   387.66   466.86   495.51   995.56  1296.32
eigval :     2101.90  3390.69  3406.94

   temp. (K)  partition function   enthalpy   heat capacity  entropy
                                   cal/mol     cal/K/mol   cal/K/mol   J/K/mol
  10.00  VIB   1.00                    0.000      0.000     -0.007
         ROT   18.9                   29.809      2.981      8.825
         INT   18.9                   29.809      2.981      8.818
         TR   0.151E+25               49.681      4.968     20.115
         TOT                          79.4904     7.9490    28.9322   121.0524

       T/K    H(0)-H(T)+PV         H(T)/Eh          T*S/Eh         G(T)/Eh
   ------------------------------------------------------------------------
    298.15    0.521002E-02    0.342023E-01    0.288631E-01    0.533915E-02
    120.00    0.165427E-02    0.306465E-01    0.949512E-02    0.211514E-01
    100.00    0.134133E-02    0.303336E-01    0.762768E-02    0.227059E-01
     80.00    0.104736E-02    0.300396E-01    0.584012E-02    0.241995E-01
     60.00    0.770422E-03    0.297627E-01    0.414141E-02    0.256213E-01
     40.00    0.507804E-03    0.295001E-01    0.254826E-02    0.269518E-01
     20.00    0.253353E-03    0.292456E-01    0.109782E-02    0.281478E-01
     10.00    0.126676E-03    0.291189E-01    0.461064E-03    0.286579E-01 (used)
   ------------------------------------------------------------------------

         :::::::::::::::::::::::::::::::::::::::::::::::::::::
         ::                  THERMODYNAMIC                  ::
         :::::::::::::::::::::::::::::::::::::::::::::::::::::
         :: total free energy          -8.047284461941 Eh   ::
         ::.................................................::
         :: total energy               -8.075942339427 Eh   ::
         :: zero point energy           0.028992265654 Eh   ::
         :: G(RRHO) w/o ZPVE           -0.000334388167 Eh   ::
         :: G(RRHO) contrib.            0.028657877487 Eh   ::
         :::::::::::::::::::::::::::::::::::::::::::::::::::::

           -------------------------------------------------
          | TOTAL ENERGY               -8.075942339427 Eh   |
          | TOTAL ENTHALPY             -8.046823397758 Eh   |
          | TOTAL FREE ENERGY          -8.047284461941 Eh   |
          | GRADIENT NORM               0.000774715628 Eh/Î± |
          | HOMO-LUMO GAP               5.664215930855 eV   |
           -------------------------------------------------

 * finished run on 2020/05/12 at 11:44:46.246
