   * xtb version 6.2.2 (9d81278992624c895f80dd42a50cac0aa55982e2) compiled by '@Darwin' on 04/03/2020
          program call               : xtb --input H2C1O2_5_S_0.input H2C1O2_5_S_0.xyz --ohess --molden --namespace H2C1O2_5_S_0 output.out
          number of atoms            :                     5
          number of electrons        :                    18
          charge                     :                     0
          spin                       :                   0.0

   ID    Z sym.   atoms
    1    6 C      1
    2    8 O      2, 3
    3    1 H      4, 5

          :  Hamiltonian                  GFN2-xTB          :
 * total energy  :   -11.1722124 Eh     change       -0.6112444E-10 Eh
 * total energy  :   -11.1767469 Eh     change       -0.4534516E-02 Eh
 * total energy  :   -11.1778375 Eh     change       -0.1090645E-02 Eh
 * total energy  :   -11.1778802 Eh     change       -0.4264033E-04 Eh
 * total energy  :   -11.1778841 Eh     change       -0.3887151E-05 Eh
   *** GEOMETRY OPTIMIZATION CONVERGED AFTER 5 ITERATIONS ***

 final structure:
================
5
 xtb: 6.2.2 (9d81278992624c895f80dd42a50cac0aa55982e2)
C        -0.23462840187251    0.00663524790244   -0.00504237188795
O         0.94677479073554    0.03586767570795   -0.67905371158805
O         0.91322512786665   -0.08846278240203    0.71900634086084
H        -0.83691829533839   -0.89655652941016   -0.09981184957517
H        -0.78845322139130    0.94251738820180    0.06490159219033

          :  Hamiltonian                  GFN2-xTB          :
         :: gradient norm              0.000867072443 Eh/a0 ::
         :: HOMO-LUMO gap              7.053674297210 eV    ::
         :: SCC energy               -11.234296927702 Eh    ::
         :: -> dispersion             -0.001165999305 Eh    ::
         :: repulsion energy           0.056412853393 Eh    ::

    * Orbital Energies and Occupations

         #    Occupation            Energy/Eh            Energy/eV
      -------------------------------------------------------------
         1        2.0000           -0.7981495             -21.7188
         2        2.0000           -0.7265276             -19.7698
         3        2.0000           -0.6863496             -18.6765
         4        2.0000           -0.6434167             -17.5083
         5        2.0000           -0.6157708             -16.7560
         6        2.0000           -0.5823187             -15.8457
         7        2.0000           -0.5730046             -15.5922
         8        2.0000           -0.4934162             -13.4265
         9        2.0000           -0.4631676             -12.6034 (HOMO)
        10                         -0.2039498              -5.5498 (LUMO)
        11                         -0.0660429              -1.7971
        12                          0.0706374               1.9221
        13                          0.2031327               5.5275
        14                          0.2540458               6.9129
      -------------------------------------------------------------
                  HL-Gap            0.2592178 Eh            7.0537 eV

     #   Z        covCN         q      C6AA      Î±(0)
     1   6 C      3.555     0.218    17.979     6.190
     2   8 O      1.794    -0.176    16.940     5.558
     3   8 O      1.794    -0.176    16.941     5.558
     4   1 H      0.925     0.067     2.123     2.279
     5   1 H      0.925     0.067     2.123     2.279

Wiberg/Mayer (AO) data.
largest (>0.10) Wiberg bond orders for each atom
          total WBO             WBO to atom ...

molecular dipole:
                 x           y           z       tot (Debye)
 q only:       -0.919       0.026      -0.020
   full:       -1.101       0.031      -0.024       2.801

 projected vibrational frequencies (cm-1)
eigval :       -0.00    -0.00     0.00     0.00     0.00     0.00
eigval :     1022.51  1029.66  1034.68  1132.80  1137.50  1372.42
eigval :     1481.72  3005.71  3010.30

   temp. (K)  partition function   enthalpy   heat capacity  entropy
                                   cal/mol     cal/K/mol   cal/K/mol   J/K/mol
  10.00  VIB   1.00                    0.000      0.000     -0.000
         ROT   23.1                   29.809      2.981      9.216
         INT   23.1                   29.809      2.981      9.216
         TR   0.186E+25               49.681      4.968     20.529
         TOT                          79.4904     7.9490    29.7456   124.4556

       T/K    H(0)-H(T)+PV         H(T)/Eh          T*S/Eh         G(T)/Eh
   ------------------------------------------------------------------------
    298.15    0.393270E-02    0.363449E-01    0.271373E-01    0.920763E-02
    120.00    0.152019E-02    0.339324E-01    0.946459E-02    0.244678E-01
    100.00    0.126677E-02    0.336789E-01    0.765621E-02    0.260227E-01
     80.00    0.101341E-02    0.334256E-01    0.589890E-02    0.275267E-01
     60.00    0.760056E-03    0.331722E-01    0.420559E-02    0.289667E-01
     40.00    0.506704E-03    0.329189E-01    0.259833E-02    0.303206E-01
     20.00    0.253352E-03    0.326655E-01    0.112361E-02    0.315419E-01
     10.00    0.126676E-03    0.325389E-01    0.474026E-03    0.320648E-01 (used)
   ------------------------------------------------------------------------

         :::::::::::::::::::::::::::::::::::::::::::::::::::::
         ::                  THERMODYNAMIC                  ::
         :::::::::::::::::::::::::::::::::::::::::::::::::::::
         :: total free energy         -11.145819226823 Eh   ::
         ::.................................................::
         :: total energy              -11.177884057573 Eh   ::
         :: zero point energy           0.032412181151 Eh   ::
         :: G(RRHO) w/o ZPVE           -0.000347350401 Eh   ::
         :: G(RRHO) contrib.            0.032064830750 Eh   ::
         :::::::::::::::::::::::::::::::::::::::::::::::::::::

           -------------------------------------------------
          | TOTAL ENERGY              -11.177884057573 Eh   |
          | TOTAL ENTHALPY            -11.145345200406 Eh   |
          | TOTAL FREE ENERGY         -11.145819226823 Eh   |
          | GRADIENT NORM               0.000867073824 Eh/Î± |
          | HOMO-LUMO GAP               7.053674243948 eV   |
           -------------------------------------------------

 * finished run on 2020/05/12 at 11:43:53.321
