   * xtb version 6.2.2 (9d81278992624c895f80dd42a50cac0aa55982e2) compiled by '@Darwin' on 04/03/2020
          program call               : xtb --input C2O1_2_S_0.input C2O1_2_S_0.xyz --ohess --molden --namespace C2O1_2_S_0 output.out
          number of atoms            :                     3
          number of electrons        :                    14
          charge                     :                     0
          spin                       :                   0.0

   ID    Z sym.   atoms
    1    6 C      1, 2
    2    8 O      3

          :  Hamiltonian                  GFN2-xTB          :
 * total energy  :    -8.0733726 Eh     change       -0.1664446E-10 Eh
 * total energy  :    -8.0840291 Eh     change       -0.1065654E-01 Eh
 * total energy  :    -8.0860793 Eh     change       -0.2050208E-02 Eh
 * total energy  :    -8.0863474 Eh     change       -0.2680877E-03 Eh
 * total energy  :    -8.0863510 Eh     change       -0.3638911E-05 Eh
   *** GEOMETRY OPTIMIZATION CONVERGED AFTER 5 ITERATIONS ***

 final structure:
================
3
 xtb: 6.2.2 (9d81278992624c895f80dd42a50cac0aa55982e2)
C         0.78688756391282   -0.20312822227537    0.06802943286375
C        -0.31382373269386    0.75217282073169   -0.02882845410926
O        -0.47306283121896   -0.54904459845632   -0.03919997875449

          :  Hamiltonian                  GFN2-xTB          :
         :: gradient norm              0.000152809246 Eh/a0 ::
         :: HOMO-LUMO gap              2.176233737675 eV    ::
         :: SCC energy                -8.140102479073 Eh    ::
         :: -> dispersion             -0.000797884548 Eh    ::
         :: repulsion energy           0.053751450697 Eh    ::

    * Orbital Energies and Occupations

         #    Occupation            Energy/Eh            Energy/eV
      -------------------------------------------------------------
         1        2.0000           -0.8267310             -22.4965
         2        2.0000           -0.6987401             -19.0137
         3        2.0000           -0.6961956             -18.9444
         4        2.0000           -0.6433988             -17.5078
         5        2.0000           -0.5217471             -14.1975
         6        2.0000           -0.4966681             -13.5150
         7        2.0000           -0.4487691             -12.2116 (HOMO)
         8                         -0.3687940             -10.0354 (LUMO)
         9                         -0.3317167              -9.0265
        10                         -0.0942133              -2.5637
        11                          0.2087056               5.6792
        12                          0.2851443               7.7592
      -------------------------------------------------------------
                  HL-Gap            0.0799751 Eh            2.1762 eV

     #   Z        covCN         q      C6AA      Î±(0)
     1   6 C      1.833    -0.003    31.237     9.029
     2   6 C      1.833    -0.003    31.237     9.029
Molecule has the following symmetry elements: (C2) 2*(sigma)
It seems to be the C2v point group
     3   8 O      1.709     0.005    14.412     5.126

Wiberg/Mayer (AO) data.
largest (>0.10) Wiberg bond orders for each atom
          total WBO             WBO to atom ...

molecular dipole:
                 x           y           z       tot (Debye)
 q only:       -0.007      -0.008      -0.001
   full:       -0.369      -0.428      -0.031       1.438

 projected vibrational frequencies (cm-1)
eigval :       -0.00    -0.00    -0.00     0.00     0.00     0.00
eigval :     1093.93  1107.62  1572.32

   temp. (K)  partition function   enthalpy   heat capacity  entropy
                                   cal/mol     cal/K/mol   cal/K/mol   J/K/mol
  10.00  VIB   1.00                    0.000      0.000     -0.000
         ROT   13.9                   29.809      2.981      8.216
         INT   13.9                   29.809      2.981      8.216
         TR   0.150E+25               49.681      4.968     20.113
         TOT                          79.4904     7.9490    28.3291   118.5292

       T/K    H(0)-H(T)+PV         H(T)/Eh          T*S/Eh         G(T)/Eh
   ------------------------------------------------------------------------
    298.15    0.383022E-02    0.124277E-01    0.263418E-01   -0.139141E-01
    120.00    0.152013E-02    0.101176E-01    0.919365E-02    0.923993E-03
    100.00    0.126676E-02    0.986428E-02    0.743047E-02    0.243380E-02
     80.00    0.101341E-02    0.961092E-02    0.571831E-02    0.389261E-02
     60.00    0.760056E-03    0.935757E-02    0.407015E-02    0.528742E-02
     40.00    0.506704E-03    0.910422E-02    0.250804E-02    0.659618E-02
     20.00    0.253352E-03    0.885087E-02    0.107846E-02    0.777240E-02
     10.00    0.126676E-03    0.872419E-02    0.451454E-03    0.827274E-02 (used)
   ------------------------------------------------------------------------

         :::::::::::::::::::::::::::::::::::::::::::::::::::::
         ::                  THERMODYNAMIC                  ::
         :::::::::::::::::::::::::::::::::::::::::::::::::::::
         :: total free energy          -8.078078290973 Eh   ::
         ::.................................................::
         :: total energy               -8.086351027664 Eh   ::
         :: zero point energy           0.008597514385 Eh   ::
         :: G(RRHO) w/o ZPVE           -0.000324777693 Eh   ::
         :: G(RRHO) contrib.            0.008272736692 Eh   ::
         :::::::::::::::::::::::::::::::::::::::::::::::::::::

           -------------------------------------------------
          | TOTAL ENERGY               -8.086351027664 Eh   |
          | TOTAL ENTHALPY             -8.077626837263 Eh   |
          | TOTAL FREE ENERGY          -8.078078290973 Eh   |
          | GRADIENT NORM               0.000152804835 Eh/Î± |
          | HOMO-LUMO GAP               2.176233819651 eV   |
           -------------------------------------------------

 * finished run on 2020/05/12 at 11:43:50.951
