 Gaussian 16, Revision B.01,

 --------------------------------------------------------
 #P M062X/cc-pvtz nosymm opt(noeigentest) optcyc=120 freq
 --------------------------------------------------------

 -----
 Title
 -----
 Symbolic Z-matrix:
 Charge =  0 Multiplicity = 1

 SCF Done:  E(RM062X) =  -189.381744418     A.U. after   15 cycles
 SCF Done:  E(RM062X) =  -189.387958750     A.U. after   14 cycles
 SCF Done:  E(RM062X) =  -189.388092354     A.U. after   10 cycles
 SCF Done:  E(RM062X) =  -189.388092978     A.U. after    7 cycles
 Optimization completed.
    -- Stationary point found.
 Normal termination of Gaussian 16 at Fri Oct  2 16:09:34 2020.

 -------------------------------------------------------------------
 #P Geom=AllCheck Guess=TCheck SCRF=Check GenChk RM062X/CC-pVTZ Freq
 -------------------------------------------------------------------

 Structure from the checkpoint file:  "input.chk"
 -----
 Title
 -----
 Charge =  0 Multiplicity = 1

 SCF Done:  E(RM062X) =  -189.388092978     A.U. after    1 cycles

  Exact polarizability:  19.617   0.000  19.617  -0.000   0.000  63.513
 Approx polarizability:  23.912  -0.000  23.912  -0.000   0.000 106.350

                      1                      2                      3
                      A                      A                      A
 Frequencies --    119.5884               119.5884               618.5955
 Red. masses --     12.3665                12.3665                12.4413
 Frc consts  --      0.1042                 0.1042                 2.8050
 IR Inten    --      4.4412                 4.4412                31.5092

                      4                      5                      6
                      A                      A                      A
 Frequencies --    618.5955               977.6303              2026.4631
 Red. masses --     12.4413                13.1859                12.4766
 Frc consts  --      2.8050                 7.4252                30.1874
 IR Inten    --     31.5092                 0.1905                94.9395

                      7
                      A
 Frequencies --   2374.9471
 Red. masses --     12.5627
 Frc consts  --     41.7485
 IR Inten    --   1889.8983

 - Thermochemistry -
 -------------------
 Temperature   298.150 Kelvin.  Pressure   1.00000 Atm.
 Atom     1 has atomic number  6 and mass  12.00000

 Molecular mass:    51.99491 amu.
 Principal axes and moments of inertia in atomic units:
                           1         2         3
     Eigenvalues --     0.00000 373.73662 373.73662
           X            0.00000   0.94987   0.31264
           Y           -0.00000  -0.31264   0.94987
           Z            1.00000  -0.00000   0.00000
 This molecule is a prolate symmetric top.
 Rotational symmetry number  1.
 Rotational temperature (Kelvin)      0.23175
 Rotational constant (GHZ):           4.828912
 Zero-point vibrational energy      41004.4 (Joules/Mol)
                                    9.80030 (Kcal/Mol)
 Warning -- explicit consideration of   4 degrees of freedom as
           vibrations may cause significant error
 Vibrational temperatures:    172.06   172.06   890.02   890.02  1406.59
          (Kelvin)           2915.63  3417.02

 Zero-point correction=                           0.015618 (Hartree/Particle)
 Thermal correction to Energy=                    0.019715
 Thermal correction to Enthalpy=                  0.020659
 Thermal correction to Gibbs Free Energy=        -0.008390
 Sum of electronic and zero-point Energies=           -189.372475
 Sum of electronic and thermal Energies=              -189.368378
 Sum of electronic and thermal Enthalpies=            -189.367434
 Sum of electronic and thermal Free Energies=         -189.396483

                     E (Thermal)             CV                S
                      KCal/Mol        Cal/Mol-Kelvin    Cal/Mol-Kelvin
 Total                   12.371             11.235             61.139
 Electronic               0.000              0.000              0.000
 Translational            0.889              2.981             37.768
 Rotational               0.592              1.987             16.215
 Vibrational             10.890              6.267              7.155
 Vibration     1          0.609              1.933              3.107
 Vibration     2          0.609              1.933              3.107
 Vibration     3          0.978              0.993              0.419
 Vibration     4          0.978              0.993              0.419

 Optimization completed.
    -- Stationary point found.
 Normal termination of Gaussian 16 at Fri Oct  2 16:10:34 2020.
 Gaussian 16:  ES64L-G16RevB.01 20-Dec-2017

 -----------------------------------------------
 #P CCSD(T)/aug-cc-pvtz geom=allcheck guess=read
 -----------------------------------------------

 Structure from the checkpoint file:  "input.chk"
 -----
 Title
 -----
 Charge =  0 Multiplicity = 1

                         Standard orientation:
 ---------------------------------------------------------------------
 Center     Atomic      Atomic             Coordinates (Angstroms)
 Number     Number       Type             X           Y           Z
 ---------------------------------------------------------------------
      1          6           0        0.000000    0.000000   -2.022248
      2          6           0        0.000000    0.000000   -0.758760
      3          6           0        0.000000    0.000000    0.540344
      4          8           0        0.000000    0.000000    1.680498
 ---------------------------------------------------------------------

 SCF Done:  E(RHF) =  -188.395010973     A.U. after   12 cycles
 E2 =    -0.6598903074D+00 EUMP2 =    -0.18905490128022D+03
 CCSD(T)
 CCSD(T)= -0.18909242303D+03

 The electronic state is 1-SG.
 Alpha  occ. eigenvalues --  -20.69809 -11.46341 -11.32639 -11.24787  -1.55254
 Alpha  occ. eigenvalues --   -1.11376  -0.94201  -0.79872  -0.69633  -0.69633
 Alpha  occ. eigenvalues --   -0.48557  -0.44045  -0.44045
 Alpha virt. eigenvalues --    0.02955   0.02955   0.04688   0.06262   0.07122
 Alpha virt. eigenvalues --    0.07122   0.08153   0.10694   0.10694   0.14120
 Alpha virt. eigenvalues --    0.14995   0.14995   0.19463   0.22178   0.23104

 Mulliken charges:
               1
     1  C   -0.924549
     2  C    1.106104
     3  C    0.014848
     4  O   -0.196403
 Sum of Mulliken charges =  -0.00000

 Dipole moment (field-independent basis, Debye):
    X=              0.0000    Y=              0.0000    Z=              1.9177  Tot=              1.9177
 Quadrupole moment (field-independent basis, Debye-Ang):
   XX=            -21.6845   YY=            -21.6845   ZZ=            -30.2359
   XY=              0.0000   XZ=              0.0000   YZ=              0.0000

 189.0399056\MP4SDQ=-189.0534512\CCSD=-189.049787\CCSD(T)=-189.092423\R
 Normal termination of Gaussian 16 at Fri Oct  2 16:16:12 2020.
