   * xtb version 6.2.2 (9d81278992624c895f80dd42a50cac0aa55982e2) compiled by '@Darwin' on 04/03/2020
          program call               : xtb --input C4N1_0_S_3.input C4N1_0_S_3.xyz --ohess --molden --namespace C4N1_0_S_3 output.out
          number of atoms            :                     5
          number of electrons        :                    21
          charge                     :                     0
          spin                       :                   1.5

   ID    Z sym.   atoms
    1    7 N      1
    2    6 C      2-5

          :  Hamiltonian                  GFN2-xTB          :
 * total energy  :   -10.6952293 Eh     change       -0.3578116E-10 Eh
 * total energy  :   -10.7307515 Eh     change       -0.3552214E-01 Eh
 * total energy  :   -10.8112398 Eh     change       -0.8048835E-01 Eh
 * total energy  :   -10.8494782 Eh     change       -0.3823842E-01 Eh
 * total energy  :   -10.9179684 Eh     change       -0.6849017E-01 Eh
 * total energy  :   -10.9453717 Eh     change       -0.2740327E-01 Eh
 * total energy  :   -10.9481819 Eh     change       -0.2810179E-02 Eh
 * total energy  :   -10.9536974 Eh     change       -0.5515569E-02 Eh
 * total energy  :   -10.9657669 Eh     change       -0.1206949E-01 Eh
 * total energy  :   -10.9797608 Eh     change       -0.1399385E-01 Eh
 * total energy  :   -11.0251455 Eh     change       -0.6804922E-03 Eh
 * total energy  :   -11.0254198 Eh     change       -0.2742617E-03 Eh
 * total energy  :   -11.0256091 Eh     change       -0.1893040E-03 Eh
 * total energy  :   -11.0258849 Eh     change       -0.2758187E-03 Eh
 * total energy  :   -11.0259929 Eh     change       -0.1080411E-03 Eh
 * total energy  :   -11.0260559 Eh     change       -0.6302232E-04 Eh
 * total energy  :   -11.0260740 Eh     change       -0.1806351E-04 Eh
 * total energy  :   -11.0260825 Eh     change       -0.8523955E-05 Eh
 * total energy  :   -11.0260835 Eh     change       -0.9765458E-06 Eh
   *** GEOMETRY OPTIMIZATION CONVERGED AFTER 25 ITERATIONS ***

 final structure:
================
5
 xtb: 6.2.2 (9d81278992624c895f80dd42a50cac0aa55982e2)
N        -0.65550906641073   -0.08134165307658   -1.72029070570137
C        -0.15753042935755   -0.01298780424533   -0.62720595393859
C         0.50387182851202   -0.85010611598213    0.40972864829532
C         0.21555373130200   -0.00748281102509    1.45694654561244
C         0.09361293595425    0.95191838432913    0.48082146573220

          :  Hamiltonian                  GFN2-xTB          :
         :: gradient norm              0.000357547912 Eh/a0 ::
         :: HOMO-LUMO gap              1.746870576835 eV    ::
         :: SCC energy               -11.205277926994 Eh    ::
         :: -> dispersion             -0.002755669092 Eh    ::
         :: repulsion energy           0.179194399507 Eh    ::

    * Orbital Energies and Occupations

         #    Occupation            Energy/Eh            Energy/eV
      -------------------------------------------------------------
         1        2.0000           -0.7381987             -20.0874
         2        2.0000           -0.7003109             -19.0564
         3        2.0000           -0.6304721             -17.1560
         4        2.0000           -0.6203134             -16.8796
         5        2.0000           -0.5674200             -15.4403
         6        2.0000           -0.5668812             -15.4256
         7        2.0000           -0.5040519             -13.7160
         8        2.0000           -0.4915088             -13.3746
         9        2.0000           -0.4683611             -12.7448
        10        1.0000           -0.4484689             -12.2035
        11        1.0000           -0.4259537             -11.5908
        12        1.0000           -0.3835239             -10.4362 (HOMO)
        13                         -0.3193276              -8.6893 (LUMO)
        14                         -0.3111184              -8.4660
        15                         -0.1992793              -5.4227
        16                          0.0696321               1.8948
        17                          0.1002244               2.7272
        18                          0.1995342               5.4296
        19                          0.4236041              11.5269
        20                          0.8220864              22.3701
      -------------------------------------------------------------
                  HL-Gap            0.0641963 Eh            1.7469 eV

     #   Z        covCN         q      C6AA      Î±(0)
     1   7 N      0.912    -0.153    24.304     7.130
     2   6 C      3.127     0.198    23.625     7.958
     3   6 C      2.731    -0.044    29.071     8.827
     4   6 C      2.223     0.043    29.232     8.754
     5   6 C      2.731    -0.045    29.080     8.829

Wiberg/Mayer (AO) data.
largest (>0.10) Wiberg bond orders for each atom
          total WBO             WBO to atom ...

molecular dipole:
                 x           y           z       tot (Debye)
 q only:        0.098       0.009       0.306
   full:        0.174       0.019       0.463       1.258

 projected vibrational frequencies (cm-1)
eigval :       -0.00    -0.00    -0.00     0.00     0.00     0.00
eigval :      245.28   369.97   500.44   513.18   627.85   836.23
eigval :      957.13  1470.61  1854.95

   temp. (K)  partition function   enthalpy   heat capacity  entropy
                                   cal/mol     cal/K/mol   cal/K/mol   J/K/mol
  10.00  VIB   1.00                    0.000      0.000     -0.004
         ROT   208.                   29.809      2.981     13.586
         INT   208.                   29.809      2.981     13.583
         TR   0.290E+25               49.681      4.968     21.419
         TOT                          79.4904     7.9490    35.0023   146.4496

       T/K    H(0)-H(T)+PV         H(T)/Eh          T*S/Eh         G(T)/Eh
   ------------------------------------------------------------------------
    298.15    0.531202E-02    0.221149E-01    0.317501E-01   -0.963514E-02
    120.00    0.161505E-02    0.184180E-01    0.105928E-01    0.782522E-02
    100.00    0.131232E-02    0.181152E-01    0.855168E-02    0.956357E-02
     80.00    0.102987E-02    0.178328E-01    0.658957E-02    0.112432E-01
     60.00    0.763445E-03    0.175664E-01    0.471254E-02    0.128538E-01
     40.00    0.506872E-03    0.173098E-01    0.293380E-02    0.143760E-01
     20.00    0.253352E-03    0.170563E-01    0.129120E-02    0.157651E-01
     10.00    0.126676E-03    0.169296E-01    0.557797E-03    0.163718E-01 (used)
   ------------------------------------------------------------------------

         :::::::::::::::::::::::::::::::::::::::::::::::::::::
         ::                  THERMODYNAMIC                  ::
         :::::::::::::::::::::::::::::::::::::::::::::::::::::
         :: total free energy         -11.009711699499 Eh   ::
         ::.................................................::
         :: total energy              -11.026083504072 Eh   ::
         :: zero point energy           0.016802925677 Eh   ::
         :: G(RRHO) w/o ZPVE           -0.000431121104 Eh   ::
         :: G(RRHO) contrib.            0.016371804573 Eh   ::
         :::::::::::::::::::::::::::::::::::::::::::::::::::::

           -------------------------------------------------
          | TOTAL ENERGY              -11.026083504072 Eh   |
          | TOTAL ENTHALPY            -11.009153902380 Eh   |
          | TOTAL FREE ENERGY         -11.009711699499 Eh   |
          | GRADIENT NORM               0.000357608354 Eh/Î± |
          | HOMO-LUMO GAP               1.746871298951 eV   |
           -------------------------------------------------

 * finished run on 2020/05/12 at 11:43:56.609
