 Gaussian 16, Revision B.01,
 Gaussian 16:  ES64L-G16RevB.01 20-Dec-2017

 ----------------------
 #P CCSD(T)/aug-cc-pvtz
 ----------------------

 -----
 Title
 -----
 Symbolic Z-matrix:
 Charge =  0 Multiplicity = 2

                         Standard orientation:
 ---------------------------------------------------------------------
 Center     Atomic      Atomic             Coordinates (Angstroms)
 Number     Number       Type             X           Y           Z
 ---------------------------------------------------------------------
      1          1           0        0.000000    0.000000    0.000000
 ---------------------------------------------------------------------

 SCF Done:  E(UHF) = -0.499821176024     A.U. after    6 cycles
 E2 =     0.0000000000D+00 EUMP2 =    -0.49982117602396D+00
 CCSD(T)
 CCSD(T)= -0.49982117602D+00

 The electronic state is 2-A1G.
 Alpha  occ. eigenvalues --   -0.49982
 Alpha virt. eigenvalues --    0.05775   0.20584   0.20584   0.20584   0.45084
 Alpha virt. eigenvalues --    0.80688   0.80688   0.80688   0.80688   0.80688
 Alpha virt. eigenvalues --    0.98507   0.98507   0.98507   2.56799   3.83936

 Mulliken charges and spin densities:
               1          2
     1  H   -0.000000   1.000000
 Sum of Mulliken charges =  -0.00000   1.00000

 Dipole moment (field-independent basis, Debye):
    X=              0.0000    Y=              0.0000    Z=              0.0000  Tot=              0.0000
 Quadrupole moment (field-independent basis, Debye-Ang):
   XX=             -1.3488   YY=             -1.3488   ZZ=             -1.3488
   XY=             -0.0000   XZ=             -0.0000   YZ=              0.0000

 4DQ=-0.4998212\MP4SDQ=-0.4998212\CCSD=-0.4998212\CCSD(T)=-0.4998212\S2
 Normal termination of Gaussian 16 at Mon Oct  5 21:20:52 2020.
