   * xtb version 6.2.2 (9d81278992624c895f80dd42a50cac0aa55982e2) compiled by '@Darwin' on 04/03/2020
          program call               : xtb --input C4N1_49_S_3.input C4N1_49_S_3.xyz --ohess --molden --namespace C4N1_49_S_3 output.out
          number of atoms            :                     5
          number of electrons        :                    21
          charge                     :                     0
          spin                       :                   1.5

   ID    Z sym.   atoms
    1    6 C      1-4
    2    7 N      5

          :  Hamiltonian                  GFN2-xTB          :
 * total energy  :   -10.9398744 Eh     change        0.8762058E-09 Eh
 * total energy  :   -10.9599124 Eh     change       -0.2003803E-01 Eh
 * total energy  :   -10.9600471 Eh     change       -0.1347096E-03 Eh
 * total energy  :   -10.9676673 Eh     change       -0.7620220E-02 Eh
 * total energy  :   -10.9678435 Eh     change       -0.1761464E-03 Eh
 * total energy  :   -10.9679626 Eh     change       -0.1190743E-03 Eh
 * total energy  :   -10.9679665 Eh     change       -0.3920870E-05 Eh
 * total energy  :   -10.9679672 Eh     change       -0.7517770E-06 Eh
   *** GEOMETRY OPTIMIZATION CONVERGED AFTER 8 ITERATIONS ***

 final structure:
================
5
 xtb: 6.2.2 (9d81278992624c895f80dd42a50cac0aa55982e2)
C         0.19781405887748    1.00377246053214   -0.07180240263794
C        -0.74525552539973   -0.03951555153882   -0.71398315023077
C         0.17190480986636   -1.00881305545924    0.06771967404594
C        -0.72819681236962    0.05959170852123    0.72996336163148
N         1.10373346902551   -0.01503556205530   -0.01189748280871

          :  Hamiltonian                  GFN2-xTB          :
         :: gradient norm              0.000607497551 Eh/a0 ::
         :: HOMO-LUMO gap              1.280358311231 eV    ::
         :: SCC energy               -11.082690686405 Eh    ::
         :: -> dispersion             -0.002626719801 Eh    ::
         :: repulsion energy           0.114723432259 Eh    ::

    * Orbital Energies and Occupations

         #    Occupation            Energy/Eh            Energy/eV
      -------------------------------------------------------------
         1        2.0000           -0.7704928             -20.9662
         2        2.0000           -0.6727768             -18.3072
         3        2.0000           -0.6542841             -17.8040
         4        2.0000           -0.6223817             -16.9359
         5        2.0000           -0.5753714             -15.6567
         6        2.0000           -0.5470138             -14.8850
         7        2.0000           -0.5026196             -13.6770
         8        2.0000           -0.4784828             -13.0202
         9        2.0000           -0.4753584             -12.9352
        10        1.0000           -0.4541775             -12.3588
        11        1.0000           -0.4157329             -11.3127
        12        1.0000           -0.3957504             -10.7689 (HOMO)
        13                         -0.3486981              -9.4886 (LUMO)
        14                         -0.1408625              -3.8331
        15                         -0.1249267              -3.3994
        16                         -0.0431717              -1.1748
        17                          0.0105510               0.2871
        18                          0.1603060               4.3621
        19                          0.2234607               6.0807
        20                          0.3719656              10.1217
      -------------------------------------------------------------
                  HL-Gap            0.0470523 Eh            1.2804 eV

     #   Z        covCN         q      C6AA      Î±(0)
     1   6 C      3.310    -0.005    26.180     8.170
     2   6 C      3.319     0.031    25.225     7.998
     3   6 C      3.310    -0.005    26.180     8.170
     4   6 C      3.319     0.031    25.221     7.997
     5   7 N      2.607    -0.053    22.276     7.010

Wiberg/Mayer (AO) data.
largest (>0.10) Wiberg bond orders for each atom
          total WBO             WBO to atom ...

molecular dipole:
                 x           y           z       tot (Debye)
 q only:       -0.201       0.003       0.002
   full:       -0.137       0.002       0.002       0.348

 projected vibrational frequencies (cm-1)
eigval :       -0.00    -0.00    -0.00     0.00     0.00     0.00
eigval :     -913.78  -209.32   699.95   726.46   903.13   913.44
eigval :     1188.36  1254.71  1402.31

   temp. (K)  partition function   enthalpy   heat capacity  entropy
                                   cal/mol     cal/K/mol   cal/K/mol   J/K/mol
  10.00  VIB   1.00                    0.000      0.000     -0.000
         ROT   70.0                   29.809      2.981     11.423
         INT   70.0                   29.809      2.981     11.423
         TR   0.290E+25               49.681      4.968     21.419
         TOT                          79.4904     7.9490    32.8421   137.4112

       T/K    H(0)-H(T)+PV         H(T)/Eh          T*S/Eh         G(T)/Eh
   ------------------------------------------------------------------------
    298.15    0.413504E-02    0.202835E-01    0.288728E-01   -0.858931E-02
    120.00    0.152154E-02    0.176700E-01    0.100583E-01    0.761174E-02
    100.00    0.126701E-02    0.174155E-01    0.814995E-02    0.926553E-02
     80.00    0.101343E-02    0.171619E-01    0.629369E-02    0.108682E-01
     60.00    0.760056E-03    0.169085E-01    0.450166E-02    0.124069E-01
     40.00    0.506704E-03    0.166552E-01    0.279572E-02    0.138595E-01
     20.00    0.253352E-03    0.164018E-01    0.122230E-02    0.151795E-01
     10.00    0.126676E-03    0.162751E-01    0.523372E-03    0.157518E-01 (used)
   ------------------------------------------------------------------------

         :::::::::::::::::::::::::::::::::::::::::::::::::::::
         ::                  THERMODYNAMIC                  ::
         :::::::::::::::::::::::::::::::::::::::::::::::::::::
         :: total free energy         -10.952215460396 Eh   ::
         ::.................................................::
         :: total energy              -10.967967234150 Eh   ::
         :: zero point energy           0.016148469401 Eh   ::
         :: G(RRHO) w/o ZPVE           -0.000396695646 Eh   ::
         :: G(RRHO) contrib.            0.015751773755 Eh   ::
         :::::::::::::::::::::::::::::::::::::::::::::::::::::

           -------------------------------------------------
          | TOTAL ENERGY              -10.967967234150 Eh   |
          | TOTAL ENTHALPY            -10.951692088734 Eh   |
          | TOTAL FREE ENERGY         -10.952215460396 Eh   |
          | GRADIENT NORM               0.000607433067 Eh/Î± |
          | HOMO-LUMO GAP               1.280358029500 eV   |
           -------------------------------------------------

 * finished run on 2020/05/12 at 11:44:20.700
