   * xtb version 6.2.2 (9d81278992624c895f80dd42a50cac0aa55982e2) compiled by '@Darwin' on 04/03/2020
          program call               : xtb --input H1O2_0_S_3.input H1O2_0_S_3.xyz --ohess --molden --namespace H1O2_0_S_3 output.out
          number of atoms            :                     3
          number of electrons        :                    13
          charge                     :                     0
          spin                       :                   1.5

   ID    Z sym.   atoms
    1    8 O      1, 2
    2    1 H      3

          :  Hamiltonian                  GFN2-xTB          :
 * total energy  :    -8.0426633 Eh     change       -0.4285461E-10 Eh
 * total energy  :    -8.2366872 Eh     change       -0.1940239E+00 Eh
 * total energy  :    -8.2430097 Eh     change       -0.6322544E-02 Eh
 * total energy  :    -8.2473304 Eh     change       -0.4320689E-02 Eh
 * total energy  :    -8.2481319 Eh     change       -0.8015062E-03 Eh
 * total energy  :    -8.2482375 Eh     change       -0.1055529E-03 Eh
 * total energy  :    -8.2482404 Eh     change       -0.2921466E-05 Eh
   *** GEOMETRY OPTIMIZATION CONVERGED AFTER 7 ITERATIONS ***

 final structure:
================
3
 xtb: 6.2.2 (9d81278992624c895f80dd42a50cac0aa55982e2)
O        -0.37551409520035    0.53902135490817   -0.00000000000000
O         1.28656595561736   -0.27346846369580   -0.00000000000000
H        -0.91105286041701   -0.26555189121238    0.00000000000000

          :  Hamiltonian                  GFN2-xTB          :
         :: gradient norm              0.000833824656 Eh/a0 ::
         :: HOMO-LUMO gap             14.088453087279 eV    ::
         :: SCC energy                -8.263985401346 Eh    ::
         :: -> dispersion             -0.000323402615 Eh    ::
         :: repulsion energy           0.015744989172 Eh    ::

    * Orbital Energies and Occupations

         #    Occupation            Energy/Eh            Energy/eV
      -------------------------------------------------------------
         1        2.0000           -0.7295157             -19.8511
         2        2.0000           -0.7045679             -19.1723
         3        2.0000           -0.6111872             -16.6313
         4        2.0000           -0.5850551             -15.9202
         5        2.0000           -0.5423309             -14.7576
         6        1.0000           -0.5180022             -14.0956
         7        1.0000           -0.5035343             -13.7019
         8        1.0000           -0.4158671             -11.3163 (HOMO)
         9                          0.1018745               2.7721 (LUMO)
      -------------------------------------------------------------
                  HL-Gap            0.5177416 Eh           14.0885 eV

     #   Z        covCN         q      C6AA      Î±(0)
     1   8 O      0.943    -0.245    18.775     5.811
     2   8 O      0.139    -0.108    17.115     5.452
     3   1 H      0.805     0.352     0.583     1.199

Wiberg/Mayer (AO) data.
largest (>0.10) Wiberg bond orders for each atom
          total WBO             WBO to atom ...

molecular dipole:
                 x           y           z       tot (Debye)
 q only:       -0.695      -0.370       0.000
   full:       -0.778      -0.499       0.000       2.349

 projected vibrational frequencies (cm-1)
eigval :       -0.00    -0.00     0.00     0.00     0.00     0.00
eigval :      473.91   658.38  3509.49

   temp. (K)  partition function   enthalpy   heat capacity  entropy
                                   cal/mol     cal/K/mol   cal/K/mol   J/K/mol
  10.00  VIB   1.00                    0.000      0.000     -0.000
         ROT   12.6                   29.809      2.981      8.016
         INT   12.6                   29.809      2.981      8.016
         TR   0.113E+25               49.681      4.968     19.539
         TOT                          79.4904     7.9490    27.5543   115.2871

       T/K    H(0)-H(T)+PV         H(T)/Eh          T*S/Eh         G(T)/Eh
   ------------------------------------------------------------------------
    298.15    0.415154E-02    0.147263E-01    0.264267E-01   -0.117004E-01
    120.00    0.152861E-02    0.121034E-01    0.905546E-02    0.304792E-02
    100.00    0.126935E-02    0.118441E-01    0.731001E-02    0.453412E-02
     80.00    0.101386E-02    0.115886E-01    0.562007E-02    0.596856E-02
     60.00    0.760082E-03    0.113349E-01    0.399611E-02    0.733874E-02
     40.00    0.506704E-03    0.110815E-01    0.245866E-02    0.862281E-02
     20.00    0.253352E-03    0.108281E-01    0.105377E-02    0.977435E-02
     10.00    0.126676E-03    0.107014E-01    0.439105E-03    0.102623E-01 (used)
   ------------------------------------------------------------------------

         :::::::::::::::::::::::::::::::::::::::::::::::::::::
         ::                  THERMODYNAMIC                  ::
         :::::::::::::::::::::::::::::::::::::::::::::::::::::
         :: total free energy          -8.237978069147 Eh   ::
         ::.................................................::
         :: total energy               -8.248240411357 Eh   ::
         :: zero point energy           0.010574771527 Eh   ::
         :: G(RRHO) w/o ZPVE           -0.000312429317 Eh   ::
         :: G(RRHO) contrib.            0.010262342210 Eh   ::
         :::::::::::::::::::::::::::::::::::::::::::::::::::::

           -------------------------------------------------
          | TOTAL ENERGY               -8.248240411357 Eh   |
          | TOTAL ENTHALPY             -8.237538963814 Eh   |
          | TOTAL FREE ENERGY          -8.237978069147 Eh   |
          | GRADIENT NORM               0.000833953306 Eh/Î± |
          | HOMO-LUMO GAP              14.088465977561 eV   |
           -------------------------------------------------

 * finished run on 2020/05/12 at 11:45:16.207
