   * xtb version 6.2.2 (9d81278992624c895f80dd42a50cac0aa55982e2) compiled by '@Darwin' on 04/03/2020
          program call               : xtb --input C1O1_0_S_2.input C1O1_0_S_2.xyz --ohess --molden --namespace C1O1_0_S_2 output.out
          number of atoms            :                     2
          number of electrons        :                    10
          charge                     :                     0
          spin                       :                   1.0

   ID    Z sym.   atoms
    1    8 O      1
    2    6 C      2

          :  Hamiltonian                  GFN2-xTB          :
 * total energy  :    -5.8942526 Eh     change       -0.3758336E-09 Eh
 * total energy  :    -5.9419277 Eh     change       -0.4767516E-01 Eh
 * total energy  :    -5.9419294 Eh     change       -0.1708431E-05 Eh
 * total energy  :    -5.9430570 Eh     change       -0.1127545E-02 Eh
 * total energy  :    -5.9430647 Eh     change       -0.7704118E-05 Eh
 * total energy  :    -5.9430647 Eh     change       -0.3632951E-07 Eh
   *** GEOMETRY OPTIMIZATION CONVERGED AFTER 6 ITERATIONS ***

 final structure:
================
2
 xtb: 6.2.2 (9d81278992624c895f80dd42a50cac0aa55982e2)
O         0.59573619429575    0.00000000000000    0.00000000000000
C        -0.59573619429575    0.00000000000000    0.00000000000000

          :  Hamiltonian                  GFN2-xTB          :
         :: gradient norm              0.000227238949 Eh/a0 ::
         :: HOMO-LUMO gap              0.000000000000 eV    ::
         :: SCC energy                -5.985170851741 Eh    ::
         :: -> dispersion             -0.000260623960 Eh    ::
         :: repulsion energy           0.042106122089 Eh    ::

    * Orbital Energies and Occupations

         #    Occupation            Energy/Eh            Energy/eV
      -------------------------------------------------------------
         1        2.0000           -0.7671350             -20.8748
         2        2.0000           -0.6335079             -17.2386
         3        2.0000           -0.5850346             -15.9196
         4        2.0000           -0.5850346             -15.9196
         5        1.0000           -0.4692546             -12.7691
         6        0.5000           -0.2991853              -8.1412 (HOMO)
         7        0.5000           -0.2991853              -8.1412 (LUMO)
         8                          0.5538475              15.0710
      -------------------------------------------------------------
                  HL-Gap            0.0000000 Eh            0.0000 eV

     #   Z        covCN         q      C6AA      Î±(0)
     1   8 O      0.856    -0.144    17.184     5.558
     2   6 C      0.856     0.144    31.101     9.306

Wiberg/Mayer (AO) data.
largest (>0.10) Wiberg bond orders for each atom
          total WBO             WBO to atom ...

molecular dipole:
                 x           y           z       tot (Debye)
 q only:       -0.325       0.000       0.000
   full:       -0.499       0.000       0.000       1.268

   temp. (K)  partition function   enthalpy   heat capacity  entropy
                                   cal/mol     cal/K/mol   cal/K/mol   J/K/mol
  10.00  VIB   1.00                    0.000      0.000     -0.000
         ROT   4.02                   19.873      1.987      4.750
         INT   4.02                   19.873      1.987      4.750
         TR   0.881E+24               49.681      4.968     19.050
         TOT                          69.5541     6.9554    23.7995    99.5772

       T/K    H(0)-H(T)+PV         H(T)/Eh          T*S/Eh         G(T)/Eh
   ------------------------------------------------------------------------
    298.15    0.330538E-02    0.781908E-02    0.225243E-01   -0.147053E-01
    120.00    0.133010E-02    0.584380E-02    0.785525E-02   -0.201145E-02
    100.00    0.110842E-02    0.562212E-02    0.634402E-02   -0.721906E-03
     80.00    0.886732E-03    0.540043E-02    0.487742E-02    0.523016E-03
     60.00    0.665049E-03    0.517875E-02    0.346681E-02    0.171194E-02
     40.00    0.443366E-03    0.495707E-02    0.213150E-02    0.282557E-02
     20.00    0.221683E-03    0.473539E-02    0.912144E-03    0.382324E-02
     10.00    0.110842E-03    0.462454E-02    0.379269E-03    0.424527E-02 (used)
   ------------------------------------------------------------------------

         :::::::::::::::::::::::::::::::::::::::::::::::::::::
         ::                  THERMODYNAMIC                  ::
         :::::::::::::::::::::::::::::::::::::::::::::::::::::
         :: total free energy          -5.938819454735 Eh   ::
         ::.................................................::
         :: total energy               -5.943064729652 Eh   ::
         :: zero point energy           0.004513702786 Eh   ::
         :: G(RRHO) w/o ZPVE           -0.000268427869 Eh   ::
         :: G(RRHO) contrib.            0.004245274917 Eh   ::
         :::::::::::::::::::::::::::::::::::::::::::::::::::::

           -------------------------------------------------
          | TOTAL ENERGY               -5.943064729652 Eh   |
          | TOTAL ENTHALPY             -5.938440185352 Eh   |
          | TOTAL FREE ENERGY          -5.938819454735 Eh   |
          | GRADIENT NORM               0.000227236756 Eh/Î± |
          | HOMO-LUMO GAP               0.000000000210 eV   |
           -------------------------------------------------

 * finished run on 2020/05/12 at 11:43:53.584
