   * xtb version 6.2.2 (9d81278992624c895f80dd42a50cac0aa55982e2) compiled by '@Darwin' on 04/03/2020
          program call               : xtb --input H1C3N1_31_S_2.input H1C3N1_31_S_2.xyz --ohess --molden --namespace H1C3N1_31_S_2 output.out
          number of atoms            :                     5
          number of electrons        :                    18
          charge                     :                     0
          spin                       :                   1.0

   ID    Z sym.   atoms
    1    7 N      1
    2    6 C      2-4
    3    1 H      5

          :  Hamiltonian                  GFN2-xTB          :
 * total energy  :    -9.4402767 Eh     change        0.1516316E-09 Eh
 * total energy  :    -9.4946336 Eh     change       -0.5435685E-01 Eh
 * total energy  :    -9.5111416 Eh     change       -0.1650799E-01 Eh
 * total energy  :    -9.5264684 Eh     change       -0.1532685E-01 Eh
 * total energy  :    -9.5290197 Eh     change       -0.2551338E-02 Eh
 * total energy  :    -9.5337142 Eh     change       -0.4694439E-02 Eh
 * total energy  :    -9.5364112 Eh     change       -0.2697010E-02 Eh
 * total energy  :    -9.5374241 Eh     change       -0.1012921E-02 Eh
 * total energy  :    -9.5380542 Eh     change       -0.6300929E-03 Eh
 * total energy  :    -9.5385515 Eh     change       -0.4972668E-03 Eh
 * total energy  :    -9.5385965 Eh     change       -0.4505736E-04 Eh
 * total energy  :    -9.5386146 Eh     change       -0.1806556E-04 Eh
 * total energy  :    -9.5386166 Eh     change       -0.1961061E-05 Eh
   *** GEOMETRY OPTIMIZATION CONVERGED AFTER 13 ITERATIONS ***

 final structure:
================
5
 xtb: 6.2.2 (9d81278992624c895f80dd42a50cac0aa55982e2)
N        -1.44087162671875   -0.05464250800477    0.23046616644203
C        -0.47183477108103    0.87159917094972   -0.01857478747197
C         0.65140363776262    0.01046847983190   -0.01239554174009
C        -0.44943371234745   -0.83676649075918   -0.28366195192156
H         1.71073647238461    0.00934134798233    0.08416711469159

          :  Hamiltonian                  GFN2-xTB          :
         :: gradient norm              0.000556028233 Eh/a0 ::
         :: HOMO-LUMO gap              2.397992551792 eV    ::
         :: SCC energy                -9.662621022632 Eh    ::
         :: -> dispersion             -0.002073687793 Eh    ::
         :: repulsion energy           0.124004451404 Eh    ::

    * Orbital Energies and Occupations

         #    Occupation            Energy/Eh            Energy/eV
      -------------------------------------------------------------
         1        2.0000           -0.7268967             -19.7799
         2        2.0000           -0.6390934             -17.3906
         3        2.0000           -0.6060125             -16.4904
         4        2.0000           -0.5625483             -15.3077
         5        2.0000           -0.5465998             -14.8737
         6        2.0000           -0.5367422             -14.6055
         7        2.0000           -0.4484286             -12.2024
         8        2.0000           -0.4452922             -12.1170
         9        1.0000           -0.3967938             -10.7973
        10        1.0000           -0.3723066             -10.1310 (HOMO)
        11                         -0.2841820              -7.7330 (LUMO)
        12                         -0.2267817              -6.1710
        13                          0.0915992               2.4925
        14                          0.1279927               3.4829
        15                          0.1578915               4.2964
        16                          0.2050670               5.5802
        17                          0.5982277              16.2786
      -------------------------------------------------------------
                  HL-Gap            0.0881246 Eh            2.3980 eV

     #   Z        covCN         q      C6AA      Î±(0)
     1   7 N      1.993    -0.117    24.273     7.307
     2   6 C      2.797     0.001    27.991     8.667
     3   6 C      3.060     0.029    27.290     8.567
     4   6 C      2.797     0.001    27.991     8.667
     5   1 H      0.927     0.086     1.920     2.167

Wiberg/Mayer (AO) data.
largest (>0.10) Wiberg bond orders for each atom
          total WBO             WBO to atom ...

molecular dipole:
                 x           y           z       tot (Debye)
 q only:        0.630       0.014      -0.039
   full:        1.023       0.022      -0.055       2.606

 projected vibrational frequencies (cm-1)
eigval :       -0.00    -0.00     0.00     0.00     0.00     0.00
eigval :      545.58   593.28   783.20   847.43   956.51  1085.75
eigval :     1292.21  1427.41  3221.30

   temp. (K)  partition function   enthalpy   heat capacity  entropy
                                   cal/mol     cal/K/mol   cal/K/mol   J/K/mol
  10.00  VIB   1.00                    0.000      0.000     -0.000
         ROT   85.8                   29.809      2.981     11.827
         INT   85.8                   29.809      2.981     11.827
         TR   0.217E+25               49.681      4.968     20.838
         TOT                          79.4904     7.9490    32.6648   136.6697

       T/K    H(0)-H(T)+PV         H(T)/Eh          T*S/Eh         G(T)/Eh
   ------------------------------------------------------------------------
    298.15    0.437034E-02    0.288667E-01    0.291133E-01   -0.246560E-03
    120.00    0.152641E-02    0.260228E-01    0.100300E-01    0.159928E-01
    100.00    0.126833E-02    0.257647E-01    0.812323E-02    0.176415E-01
     80.00    0.101361E-02    0.255100E-01    0.627132E-02    0.192387E-01
     60.00    0.760063E-03    0.252565E-01    0.448474E-02    0.207717E-01
     40.00    0.506704E-03    0.250031E-01    0.278443E-02    0.222187E-01
     20.00    0.253352E-03    0.247497E-01    0.121665E-02    0.235331E-01
     10.00    0.126676E-03    0.246231E-01    0.520547E-03    0.241025E-01 (used)
   ------------------------------------------------------------------------

         :::::::::::::::::::::::::::::::::::::::::::::::::::::
         ::                  THERMODYNAMIC                  ::
         :::::::::::::::::::::::::::::::::::::::::::::::::::::
         :: total free energy          -9.514514045122 Eh   ::
         ::.................................................::
         :: total energy               -9.538616562255 Eh   ::
         :: zero point energy           0.024496388481 Eh   ::
         :: G(RRHO) w/o ZPVE           -0.000393871348 Eh   ::
         :: G(RRHO) contrib.            0.024102517133 Eh   ::
         :::::::::::::::::::::::::::::::::::::::::::::::::::::

           -------------------------------------------------
          | TOTAL ENERGY               -9.538616562255 Eh   |
          | TOTAL ENTHALPY             -9.513993497758 Eh   |
          | TOTAL FREE ENERGY          -9.514514045122 Eh   |
          | GRADIENT NORM               0.000556010810 Eh/Î± |
          | HOMO-LUMO GAP               2.397992622325 eV   |
           -------------------------------------------------

 * finished run on 2020/05/12 at 11:45:02.529
