   * xtb version 6.2.2 (9d81278992624c895f80dd42a50cac0aa55982e2) compiled by '@Darwin' on 04/03/2020
          program call               : xtb --input C4N1_17_S_3.input C4N1_17_S_3.xyz --ohess --molden --namespace C4N1_17_S_3 output.out
          number of atoms            :                     5
          number of electrons        :                    21
          charge                     :                     0
          spin                       :                   1.5

   ID    Z sym.   atoms
    1    6 C      1-3, 5
    2    7 N      4

          :  Hamiltonian                  GFN2-xTB          :
 * total energy  :   -10.9029338 Eh     change        0.8080825E-10 Eh
 * total energy  :   -10.9672800 Eh     change       -0.6434622E-01 Eh
 * total energy  :   -10.9240495 Eh     change        0.4323057E-01 Eh
 * total energy  :   -11.0080882 Eh     change       -0.8403874E-01 Eh
 * total energy  :   -11.0205880 Eh     change       -0.1249976E-01 Eh
 * total energy  :   -11.0215033 Eh     change       -0.9152963E-03 Eh
 * total energy  :   -11.0249939 Eh     change       -0.3490677E-02 Eh
 * total energy  :   -11.0256355 Eh     change       -0.6416055E-03 Eh
 * total energy  :   -11.0260015 Eh     change       -0.3659310E-03 Eh
 * total energy  :   -11.0260628 Eh     change       -0.6138333E-04 Eh
 * total energy  :   -11.0260758 Eh     change       -0.1290258E-04 Eh
 * total energy  :   -11.0260828 Eh     change       -0.7014796E-05 Eh
 * total energy  :   -11.0260840 Eh     change       -0.1218393E-05 Eh
   *** GEOMETRY OPTIMIZATION CONVERGED AFTER 13 ITERATIONS ***

 final structure:
================
5
 xtb: 6.2.2 (9d81278992624c895f80dd42a50cac0aa55982e2)
C        -0.49325977427747    0.93824546616875    0.14693122198507
C         0.64597541207914   -0.01419692207356    0.03296572855088
C        -0.53516694356971   -0.91062765311727    0.17191272142612
N         1.83785111430681   -0.04337383984504   -0.12703735061692
C        -1.45539980853876    0.02995294886712   -0.22477232134515

          :  Hamiltonian                  GFN2-xTB          :
         :: gradient norm              0.000348076483 Eh/a0 ::
         :: HOMO-LUMO gap              1.745883579982 eV    ::
         :: SCC energy               -11.205359300888 Eh    ::
         :: -> dispersion             -0.002755745006 Eh    ::
         :: repulsion energy           0.179275293127 Eh    ::

    * Orbital Energies and Occupations

         #    Occupation            Energy/Eh            Energy/eV
      -------------------------------------------------------------
         1        2.0000           -0.7381704             -20.0866
         2        2.0000           -0.7003408             -19.0572
         3        2.0000           -0.6304464             -17.1553
         4        2.0000           -0.6203106             -16.8795
         5        2.0000           -0.5674198             -15.4403
         6        2.0000           -0.5668919             -15.4259
         7        2.0000           -0.5040501             -13.7159
         8        2.0000           -0.4915316             -13.3753
         9        2.0000           -0.4683385             -12.7441
        10        1.0000           -0.4484618             -12.2033
        11        1.0000           -0.4259402             -11.5904
        12        1.0000           -0.3834681             -10.4347 (HOMO)
        13                         -0.3193081              -8.6888 (LUMO)
        14                         -0.3111238              -8.4661
        15                         -0.1991940              -5.4203
        16                          0.0696154               1.8943
        17                          0.1001043               2.7240
        18                          0.1996613               5.4331
        19                          0.4237910              11.5319
        20                          0.8226178              22.3846
      -------------------------------------------------------------
                  HL-Gap            0.0641600 Eh            1.7459 eV

     #   Z        covCN         q      C6AA      Î±(0)
     1   6 C      2.731    -0.044    29.077     8.828
     2   6 C      3.127     0.198    23.626     7.959
     3   6 C      2.731    -0.044    29.077     8.828
     4   7 N      0.912    -0.153    24.303     7.130
     5   6 C      2.222     0.043    29.235     8.754

Wiberg/Mayer (AO) data.
largest (>0.10) Wiberg bond orders for each atom
          total WBO             WBO to atom ...

molecular dipole:
                 x           y           z       tot (Debye)
 q only:       -0.321       0.007       0.004
   full:       -0.494       0.012       0.031       1.257

 projected vibrational frequencies (cm-1)
eigval :       -0.00    -0.00    -0.00     0.00     0.00     0.00
eigval :      244.95   369.50   499.64   513.04   628.05   835.91
eigval :      956.83  1470.79  1855.94

   temp. (K)  partition function   enthalpy   heat capacity  entropy
                                   cal/mol     cal/K/mol   cal/K/mol   J/K/mol
  10.00  VIB   1.00                    0.000      0.000     -0.004
         ROT   208.                   29.809      2.981     13.586
         INT   208.                   29.809      2.981     13.583
         TR   0.290E+25               49.681      4.968     21.419
         TOT                          79.4904     7.9490    35.0022   146.4493

       T/K    H(0)-H(T)+PV         H(T)/Eh          T*S/Eh         G(T)/Eh
   ------------------------------------------------------------------------
    298.15    0.531369E-02    0.221144E-01    0.317532E-01   -0.963882E-02
    120.00    0.161536E-02    0.184161E-01    0.105932E-01    0.782290E-02
    100.00    0.131251E-02    0.181132E-01    0.855192E-02    0.956131E-02
     80.00    0.102995E-02    0.178307E-01    0.658967E-02    0.112410E-01
     60.00    0.763468E-03    0.175642E-01    0.471256E-02    0.128516E-01
     40.00    0.506873E-03    0.173076E-01    0.293380E-02    0.143738E-01
     20.00    0.253352E-03    0.170541E-01    0.129120E-02    0.157629E-01
     10.00    0.126676E-03    0.169274E-01    0.557796E-03    0.163696E-01 (used)
   ------------------------------------------------------------------------

         :::::::::::::::::::::::::::::::::::::::::::::::::::::
         ::                  THERMODYNAMIC                  ::
         :::::::::::::::::::::::::::::::::::::::::::::::::::::
         :: total free energy         -11.009714385518 Eh   ::
         ::.................................................::
         :: total energy              -11.026083984393 Eh   ::
         :: zero point energy           0.016800718947 Eh   ::
         :: G(RRHO) w/o ZPVE           -0.000431120071 Eh   ::
         :: G(RRHO) contrib.            0.016369598876 Eh   ::
         :::::::::::::::::::::::::::::::::::::::::::::::::::::

           -------------------------------------------------
          | TOTAL ENERGY              -11.026083984393 Eh   |
          | TOTAL ENTHALPY            -11.009156589431 Eh   |
          | TOTAL FREE ENERGY         -11.009714385518 Eh   |
          | GRADIENT NORM               0.000347991714 Eh/Î± |
          | HOMO-LUMO GAP               1.745883222680 eV   |
           -------------------------------------------------

 * finished run on 2020/05/12 at 11:44:05.661
