   * xtb version 6.2.2 (9d81278992624c895f80dd42a50cac0aa55982e2) compiled by '@Darwin' on 04/03/2020
          program call               : xtb --input C1N1O1_0_S_3.input C1N1O1_0_S_3.xyz --ohess --molden --namespace C1N1O1_0_S_3 output.out
          number of atoms            :                     3
          number of electrons        :                    15
          charge                     :                     0
          spin                       :                   1.5

   ID    Z sym.   atoms
    1    6 C      1
    2    8 O      2
    3    7 N      3

          :  Hamiltonian                  GFN2-xTB          :
 * total energy  :    -8.7853934 Eh     change       -0.7045919E-10 Eh
 * total energy  :    -8.8280507 Eh     change       -0.4265730E-01 Eh
 * total energy  :    -8.8298590 Eh     change       -0.1808348E-02 Eh
 * total energy  :    -8.8314593 Eh     change       -0.1600254E-02 Eh
 * total energy  :    -8.8314969 Eh     change       -0.3763010E-04 Eh
 * total energy  :    -8.8314979 Eh     change       -0.9578519E-06 Eh
   *** GEOMETRY OPTIMIZATION CONVERGED AFTER 6 ITERATIONS ***

 final structure:
================
3
 xtb: 6.2.2 (9d81278992624c895f80dd42a50cac0aa55982e2)
C        -0.04450794533794    0.43814653174490   -0.00000000000000
O        -1.06941284387871   -0.21501689117226    0.00000000000000
N         1.11392078921665   -0.22313064057264    0.00000000000000

          :  Hamiltonian                  GFN2-xTB          :
         :: gradient norm              0.000716106892 Eh/a0 ::
         :: HOMO-LUMO gap              2.293513712594 eV    ::
         :: SCC energy                -8.893083629101 Eh    ::
         :: -> dispersion             -0.000751399332 Eh    ::
         :: repulsion energy           0.061585779085 Eh    ::

    * Orbital Energies and Occupations

         #    Occupation            Energy/Eh            Energy/eV
      -------------------------------------------------------------
         1        2.0000           -0.7842262             -21.3399
         2        2.0000           -0.7053009             -19.1922
         3        2.0000           -0.6375344             -17.3482
         4        2.0000           -0.6114470             -16.6383
         5        2.0000           -0.5878722             -15.9968
         6        2.0000           -0.5305813             -14.4379
         7        1.0000           -0.4957988             -13.4914
         8        1.0000           -0.4676626             -12.7257
         9        1.0000           -0.3605446              -9.8109 (HOMO)
        10                         -0.2762596              -7.5174 (LUMO)
        11                          0.2565928               6.9822
        12                          0.4886897              13.2979
      -------------------------------------------------------------
                  HL-Gap            0.0842851 Eh            2.2935 eV

     #   Z        covCN         q      C6AA      Î±(0)
     1   6 C      1.766     0.192    26.666     8.349
     2   8 O      0.864    -0.139    17.099     5.544
     3   7 N      0.919    -0.053    22.237     6.816

Wiberg/Mayer (AO) data.
largest (>0.10) Wiberg bond orders for each atom
          total WBO             WBO to atom ...

molecular dipole:
                 x           y           z       tot (Debye)
 q only:        0.152       0.238      -0.000
   full:        0.018       0.254      -0.000       0.647

 projected vibrational frequencies (cm-1)
eigval :       -0.00    -0.00    -0.00    -0.00     0.00     0.00
eigval :      519.61  1271.62  1626.61

   temp. (K)  partition function   enthalpy   heat capacity  entropy
                                   cal/mol     cal/K/mol   cal/K/mol   J/K/mol
  10.00  VIB   1.00                    0.000      0.000     -0.000
         ROT   33.8                   29.809      2.981      9.975
         INT   33.8                   29.809      2.981      9.975
         TR   0.162E+25               49.681      4.968     20.258
         TOT                          79.4904     7.9490    30.2330   126.4949

       T/K    H(0)-H(T)+PV         H(T)/Eh          T*S/Eh         G(T)/Eh
   ------------------------------------------------------------------------
    298.15    0.400230E-02    0.117887E-01    0.274914E-01   -0.157027E-01
    120.00    0.152479E-02    0.931119E-02    0.956317E-02   -0.251981E-03
    100.00    0.126810E-02    0.905451E-02    0.773542E-02    0.131908E-02
     80.00    0.101362E-02    0.880002E-02    0.596128E-02    0.283874E-02
     60.00    0.760065E-03    0.854647E-02    0.425221E-02    0.429426E-02
     40.00    0.506704E-03    0.829311E-02    0.262941E-02    0.566370E-02
     20.00    0.253352E-03    0.803976E-02    0.113915E-02    0.690061E-02
     10.00    0.126676E-03    0.791308E-02    0.481794E-03    0.743129E-02 (used)
   ------------------------------------------------------------------------

         :::::::::::::::::::::::::::::::::::::::::::::::::::::
         ::                  THERMODYNAMIC                  ::
         :::::::::::::::::::::::::::::::::::::::::::::::::::::
         :: total free energy          -8.824066562453 Eh   ::
         ::.................................................::
         :: total energy               -8.831497850056 Eh   ::
         :: zero point energy           0.007786405227 Eh   ::
         :: G(RRHO) w/o ZPVE           -0.000355117625 Eh   ::
         :: G(RRHO) contrib.            0.007431287603 Eh   ::
         :::::::::::::::::::::::::::::::::::::::::::::::::::::

           -------------------------------------------------
          | TOTAL ENERGY               -8.831497850056 Eh   |
          | TOTAL ENTHALPY             -8.823584768813 Eh   |
          | TOTAL FREE ENERGY          -8.824066562453 Eh   |
          | GRADIENT NORM               0.000716001141 Eh/Î± |
          | HOMO-LUMO GAP               2.293513268573 eV   |
           -------------------------------------------------

 * finished run on 2020/05/12 at 11:44:41.003
