   * xtb version 6.2.2 (9d81278992624c895f80dd42a50cac0aa55982e2) compiled by '@Darwin' on 04/03/2020
          program call               : xtb --input H2C2_1_S_2.input H2C2_1_S_2.xyz --ohess --molden --namespace H2C2_1_S_2 output.out
          number of atoms            :                     4
          number of electrons        :                    10
          charge                     :                     0
          spin                       :                   1.0

   ID    Z sym.   atoms
    1    6 C      1, 2
    2    1 H      3, 4

          :  Hamiltonian                  GFN2-xTB          :
 * total energy  :    -4.9958136 Eh     change       -0.1232330E-09 Eh
 * total energy  :    -5.0137232 Eh     change       -0.1790960E-01 Eh
 * total energy  :    -5.0151256 Eh     change       -0.1402401E-02 Eh
 * total energy  :    -5.0157980 Eh     change       -0.6724240E-03 Eh
 * total energy  :    -5.0158344 Eh     change       -0.3637366E-04 Eh
 * total energy  :    -5.0158353 Eh     change       -0.8395242E-06 Eh
   *** GEOMETRY OPTIMIZATION CONVERGED AFTER 6 ITERATIONS ***

 final structure:
================
4
 xtb: 6.2.2 (9d81278992624c895f80dd42a50cac0aa55982e2)
C        -0.55350036487065    0.20913685169262   -0.21216307422243
C         0.55350221252343   -0.20913976056165    0.46327949694159
H        -1.55223387940440   -0.10224833052194    0.06665402652706
H         1.55223203175162    0.10225123939097    0.18445855075379

          :  Hamiltonian                  GFN2-xTB          :
         :: gradient norm              0.000659026013 Eh/a0 ::
         :: HOMO-LUMO gap              1.566426874330 eV    ::
         :: SCC energy                -5.091264887443 Eh    ::
         :: -> dispersion             -0.000799953103 Eh    ::
         :: repulsion energy           0.075429638500 Eh    ::

    * Orbital Energies and Occupations

         #    Occupation            Energy/Eh            Energy/eV
      -------------------------------------------------------------
         1        2.0000           -0.6265329             -17.0488
         2        2.0000           -0.5538455             -15.0709
Molecule has the following symmetry elements: (i) (C2) (sigma)
It seems to be the C2h point group
         3        2.0000           -0.4783548             -13.0167
         4        1.9994           -0.4466221             -12.1532
         5        1.0006           -0.4326018             -11.7717
         6        1.0000           -0.3015954              -8.2068 (HOMO)
         7                         -0.2440303              -6.6404 (LUMO)
         8                          0.1192274               3.2443
         9                          0.2752382               7.4896
        10                          0.4385332              11.9331
      -------------------------------------------------------------
                  HL-Gap            0.0575651 Eh            1.5664 eV

     #   Z        covCN         q      C6AA      Î±(0)
     1   6 C      1.906    -0.077    33.208     9.307
     2   6 C      1.906    -0.077    33.208     9.307
     3   1 H      0.925     0.077     2.011     2.218
     4   1 H      0.925     0.077     2.011     2.218

Wiberg/Mayer (AO) data.
largest (>0.10) Wiberg bond orders for each atom
          total WBO             WBO to atom ...

molecular dipole:
                 x           y           z       tot (Debye)
 q only:        0.000       0.000      -0.000
   full:       -0.000       0.000      -0.000       0.000

 projected vibrational frequencies (cm-1)
eigval :       -0.00    -0.00    -0.00     0.00     0.00     0.00
eigval :      611.67   796.17  1049.45  1520.13  2989.59  3008.10

   temp. (K)  partition function   enthalpy   heat capacity  entropy
                                   cal/mol     cal/K/mol   cal/K/mol   J/K/mol
  10.00  VIB   1.00                    0.000      0.000     -0.000
         ROT   4.08                   29.809      2.981      5.775
         INT   4.08                   29.809      2.981      5.774
         TR   0.790E+24               49.681      4.968     18.832
         TOT                          79.4904     7.9490    24.6064   102.9533

       T/K    H(0)-H(T)+PV         H(T)/Eh          T*S/Eh         G(T)/Eh
   ------------------------------------------------------------------------
    298.15    0.404495E-02    0.267699E-01    0.248558E-01    0.191416E-02
    120.00    0.152221E-02    0.242472E-01    0.848413E-02    0.157631E-01
    100.00    0.126722E-02    0.239922E-01    0.683775E-02    0.171544E-01
     80.00    0.101346E-02    0.237384E-01    0.524378E-02    0.184947E-01
     60.00    0.760057E-03    0.234850E-01    0.371421E-02    0.197708E-01
     40.00    0.506704E-03    0.232317E-01    0.227075E-02    0.209609E-01
     20.00    0.253352E-03    0.229783E-01    0.959815E-03    0.220185E-01
     10.00    0.126676E-03    0.228517E-01    0.392128E-03    0.224595E-01 (used)
   ------------------------------------------------------------------------

         :::::::::::::::::::::::::::::::::::::::::::::::::::::
         ::                  THERMODYNAMIC                  ::
         :::::::::::::::::::::::::::::::::::::::::::::::::::::
         :: total free energy          -4.993375728399 Eh   ::
         ::.................................................::
         :: total energy               -5.015835257035 Eh   ::
         :: zero point energy           0.022724981098 Eh   ::
         :: G(RRHO) w/o ZPVE           -0.000265452462 Eh   ::
         :: G(RRHO) contrib.            0.022459528635 Eh   ::
         :::::::::::::::::::::::::::::::::::::::::::::::::::::

           -------------------------------------------------
          | TOTAL ENERGY               -5.015835257035 Eh   |
          | TOTAL ENTHALPY             -4.992983599922 Eh   |
          | TOTAL FREE ENERGY          -4.993375728399 Eh   |
          | GRADIENT NORM               0.000659025484 Eh/Î± |
          | HOMO-LUMO GAP               1.566426837938 eV   |
           -------------------------------------------------

 * finished run on 2020/05/12 at 11:44:29.565
