   * xtb version 6.2.2 (9d81278992624c895f80dd42a50cac0aa55982e2) compiled by '@Darwin' on 04/03/2020
          program call               : xtb --input H1C4_3_S_1.input H1C4_3_S_1.xyz --ohess --molden --namespace H1C4_3_S_1 output.out
          number of atoms            :                     5
          number of electrons        :                    17
          charge                     :                     0
          spin                       :                   0.5

   ID    Z sym.   atoms
    1    6 C      1-4
    2    1 H      5

          :  Hamiltonian                  GFN2-xTB          :
 * total energy  :    -8.5567304 Eh     change        0.2434852E-10 Eh
 * total energy  :    -8.6570081 Eh     change       -0.1002777E+00 Eh
 * total energy  :    -8.6399390 Eh     change        0.1706916E-01 Eh
 * total energy  :    -8.6926710 Eh     change       -0.5273209E-01 Eh
 * total energy  :    -8.6942747 Eh     change       -0.1603685E-02 Eh
 * total energy  :    -8.7010125 Eh     change       -0.6737816E-02 Eh
 * total energy  :    -8.6998315 Eh     change        0.1181022E-02 Eh
 * total energy  :    -8.7041912 Eh     change       -0.4359715E-02 Eh
 * total energy  :    -8.7048690 Eh     change       -0.6778002E-03 Eh
 * total energy  :    -8.7061333 Eh     change       -0.1264212E-02 Eh
 * total energy  :    -8.7079232 Eh     change       -0.7253889E-03 Eh
 * total energy  :    -8.7081856 Eh     change       -0.2623980E-03 Eh
 * total energy  :    -8.7084680 Eh     change       -0.2824264E-03 Eh
 * total energy  :    -8.7085809 Eh     change       -0.1129207E-03 Eh
 * total energy  :    -8.7086946 Eh     change       -0.1136802E-03 Eh
 * total energy  :    -8.7087529 Eh     change       -0.5832088E-04 Eh
 * total energy  :    -8.7087970 Eh     change       -0.4407369E-04 Eh
 * total energy  :    -8.7088053 Eh     change       -0.8329371E-05 Eh
 * total energy  :    -8.7088069 Eh     change       -0.1576315E-05 Eh
   *** GEOMETRY OPTIMIZATION CONVERGED AFTER 20 ITERATIONS ***

 final structure:
================
5
 xtb: 6.2.2 (9d81278992624c895f80dd42a50cac0aa55982e2)
C        -1.35549398471649    1.08844249343314    0.15535682306173
C        -0.47979483600098    0.16318313271096    0.02177686034118
C         0.91227344893073   -0.06825815494888   -0.01433365474804
C         2.04844731309617   -0.46052561470607   -0.06244685432312
H        -1.12543194130944   -0.72284185648915   -0.10035317433176

          :  Hamiltonian                  GFN2-xTB          :
         :: gradient norm              0.000898043471 Eh/a0 ::
         :: HOMO-LUMO gap              1.833997848797 eV    ::
         :: SCC energy                -8.929948594710 Eh    ::
         :: -> dispersion             -0.002237797647 Eh    ::
         :: repulsion energy           0.221141723426 Eh    ::

    * Orbital Energies and Occupations

         #    Occupation            Energy/Eh            Energy/eV
      -------------------------------------------------------------
         1        2.0000           -0.6716044             -18.2753
         2        2.0000           -0.6401917             -17.4205
         3        2.0000           -0.5896844             -16.0461
         4        2.0000           -0.5527596             -15.0414
         5        2.0000           -0.4903878             -13.3441
         6        2.0000           -0.4548235             -12.3764
         7        2.0000           -0.4344165             -11.8211
         8        2.0000           -0.4254621             -11.5774
         9        1.0000           -0.4022052             -10.9446 (HOMO)
        10                         -0.3348076              -9.1106 (LUMO)
        11                         -0.2626480              -7.1470
        12                         -0.1846307              -5.0241
        13                         -0.1208996              -3.2898
        14                          0.1455339               3.9602
        15                          0.1895460               5.1578
        16                          0.7239925              19.7008
        17                          1.2170977              33.1189
      -------------------------------------------------------------
                  HL-Gap            0.0673976 Eh            1.8340 eV

     #   Z        covCN         q      C6AA      Î±(0)
     1   6 C      0.983    -0.119    39.740    10.590
     2   6 C      2.884     0.030    27.321     8.569
     3   6 C      1.963     0.000    31.067     9.001
     4   6 C      0.981    -0.088    38.682    10.447
     5   1 H      0.924     0.175     1.232     1.736

Wiberg/Mayer (AO) data.
largest (>0.10) Wiberg bond orders for each atom
          total WBO             WBO to atom ...

molecular dipole:
                 x           y           z       tot (Debye)
 q only:       -0.436      -0.398      -0.056
   full:       -0.268      -0.635      -0.091       1.767

 projected vibrational frequencies (cm-1)
eigval :       -0.00    -0.00    -0.00    -0.00     0.00     0.00
eigval :      149.56   153.99   247.99   493.76   729.09   919.28
eigval :     1753.91  2162.49  2816.84

   temp. (K)  partition function   enthalpy   heat capacity  entropy
                                   cal/mol     cal/K/mol   cal/K/mol   J/K/mol
  10.00  VIB   1.00                    0.000      0.000     -0.024
         ROT   88.4                   29.809      2.981     11.887
         INT   88.4                   29.809      2.981     11.862
         TR   0.204E+25               49.681      4.968     20.719
         TOT                          79.4904     7.9490    32.5815   136.3210

       T/K    H(0)-H(T)+PV         H(T)/Eh          T*S/Eh         G(T)/Eh
   ------------------------------------------------------------------------
    298.15    0.592917E-02    0.274053E-01    0.321697E-01   -0.476440E-02
    120.00    0.185520E-02    0.233313E-01    0.105044E-01    0.128269E-01
    100.00    0.147709E-02    0.229532E-01    0.840966E-02    0.145435E-01
     80.00    0.112351E-02    0.225996E-01    0.641280E-02    0.161868E-01
     60.00    0.800368E-03    0.222765E-01    0.453139E-02    0.177451E-01
     40.00    0.512779E-03    0.219889E-01    0.278840E-02    0.192005E-01
     20.00    0.253377E-03    0.217295E-01    0.121457E-02    0.205149E-01
     10.00    0.126676E-03    0.216028E-01    0.519219E-03    0.210835E-01 (used)
   ------------------------------------------------------------------------

         :::::::::::::::::::::::::::::::::::::::::::::::::::::
         ::                  THERMODYNAMIC                  ::
         :::::::::::::::::::::::::::::::::::::::::::::::::::::
         :: total free energy          -8.687723338601 Eh   ::
         ::.................................................::
         :: total energy               -8.708806882003 Eh   ::
         :: zero point energy           0.021476086580 Eh   ::
         :: G(RRHO) w/o ZPVE           -0.000392543178 Eh   ::
         :: G(RRHO) contrib.            0.021083543402 Eh   ::
         :::::::::::::::::::::::::::::::::::::::::::::::::::::

           -------------------------------------------------
          | TOTAL ENERGY               -8.708806882003 Eh   |
          | TOTAL ENTHALPY             -8.687204119407 Eh   |
          | TOTAL FREE ENERGY          -8.687723338601 Eh   |
          | GRADIENT NORM               0.000898260470 Eh/Î± |
          | HOMO-LUMO GAP               1.833982914084 eV   |
           -------------------------------------------------

 * finished run on 2020/05/12 at 11:45:09.133
