   * xtb version 6.2.2 (9d81278992624c895f80dd42a50cac0aa55982e2) compiled by '@Darwin' on 04/03/2020
          program call               : xtb --input C4N1_32_S_3.input C4N1_32_S_3.xyz --ohess --molden --namespace C4N1_32_S_3 output.out
          number of atoms            :                     5
          number of electrons        :                    21
          charge                     :                     0
          spin                       :                   1.5

   ID    Z sym.   atoms
    1    6 C      1-3, 5
    2    7 N      4

          :  Hamiltonian                  GFN2-xTB          :
 * total energy  :   -10.9426025 Eh     change       -0.2809752E-09 Eh
 * total energy  :   -10.9606569 Eh     change       -0.1805445E-01 Eh
 * total energy  :   -10.9864131 Eh     change       -0.2575614E-01 Eh
 * total energy  :   -10.9610761 Eh     change        0.2533699E-01 Eh
 * total energy  :   -11.0026831 Eh     change       -0.4160702E-01 Eh
 * total energy  :   -10.9854589 Eh     change        0.1722419E-01 Eh
 * total energy  :   -11.0247263 Eh     change       -0.3926736E-01 Eh
 * total energy  :   -11.0319988 Eh     change       -0.7272483E-02 Eh
 * total energy  :   -11.0354730 Eh     change       -0.3474198E-02 Eh
 * total energy  :   -11.0361820 Eh     change       -0.7090027E-03 Eh
 * total energy  :   -11.0364755 Eh     change       -0.2935386E-03 Eh
 * total energy  :   -11.0365471 Eh     change       -0.7159851E-04 Eh
 * total energy  :   -11.0366176 Eh     change       -0.7050896E-04 Eh
 * total energy  :   -11.0367356 Eh     change       -0.1179521E-03 Eh
 * total energy  :   -11.0367582 Eh     change       -0.2265451E-04 Eh
 * total energy  :   -11.0367609 Eh     change       -0.2664384E-05 Eh
   *** GEOMETRY OPTIMIZATION CONVERGED AFTER 16 ITERATIONS ***

 final structure:
================
5
 xtb: 6.2.2 (9d81278992624c895f80dd42a50cac0aa55982e2)
C        -1.02253078107995    0.70008273786125    0.02576727917995
C         0.39512882137190    0.86363262077323   -0.07517750636040
C         0.34363898040867   -0.88749239045031    0.02744456585569
N         1.34501386486817   -0.04430742132870   -0.08251439248058
C        -1.06125088556879   -0.63191554685546    0.10447905380534

          :  Hamiltonian                  GFN2-xTB          :
         :: gradient norm              0.000618545852 Eh/a0 ::
         :: HOMO-LUMO gap              1.971866481811 eV    ::
         :: SCC energy               -11.201500097870 Eh    ::
         :: -> dispersion             -0.002866263676 Eh    ::
         :: repulsion energy           0.164739185956 Eh    ::

    * Orbital Energies and Occupations

         #    Occupation            Energy/Eh            Energy/eV
      -------------------------------------------------------------
         1        2.0000           -0.7455617             -20.2878
         2        2.0000           -0.6829537             -18.5841
         3        2.0000           -0.6415882             -17.4585
         4        2.0000           -0.5950211             -16.1913
         5        2.0000           -0.5791982             -15.7608
         6        2.0000           -0.5762420             -15.6803
         7        2.0000           -0.5058807             -13.7657
         8        2.0000           -0.4595039             -12.5037
         9        2.0000           -0.4510105             -12.2726
        10        1.0000           -0.4151112             -11.2958
        11        1.0000           -0.4110617             -11.1856
        12        1.0000           -0.3819220             -10.3926 (HOMO)
        13                         -0.3094572              -8.4208 (LUMO)
        14                         -0.2582177              -7.0265
        15                         -0.2043163              -5.5597
        16                          0.1141633               3.1065
        17                          0.1425615               3.8793
        18                          0.3856411              10.4938
        19                          0.4045363              11.0080
        20                          0.5412955              14.7294
      -------------------------------------------------------------
                  HL-Gap            0.0724647 Eh            1.9719 eV

     #   Z        covCN         q      C6AA      Î±(0)
     1   6 C      2.264    -0.033    30.818     9.000
     2   6 C      3.077     0.100    25.712     8.314
     3   6 C      3.078     0.100    25.701     8.312
     4   7 N      1.824    -0.134    24.685     7.362
     5   6 C      2.263    -0.033    30.834     9.002

Wiberg/Mayer (AO) data.
largest (>0.10) Wiberg bond orders for each atom
          total WBO             WBO to atom ...

molecular dipole:
                 x           y           z       tot (Debye)
 q only:       -0.072       0.002       0.004
   full:       -0.251       0.007       0.014       0.640

 projected vibrational frequencies (cm-1)
eigval :       -0.00    -0.00     0.00     0.00     0.00     0.00
eigval :     -308.20   440.60   459.48   616.09   770.90  1008.90
eigval :     1106.41  1484.30  1601.68

   temp. (K)  partition function   enthalpy   heat capacity  entropy
                                   cal/mol     cal/K/mol   cal/K/mol   J/K/mol
  10.00  VIB   1.00                    0.000      0.000     -0.001
         ROT   86.1                   29.809      2.981     11.834
         INT   86.1                   29.809      2.981     11.834
         TR   0.290E+25               49.681      4.968     21.419
         TOT                          79.4904     7.9490    33.2530   139.1305

       T/K    H(0)-H(T)+PV         H(T)/Eh          T*S/Eh         G(T)/Eh
   ------------------------------------------------------------------------
    298.15    0.461153E-02    0.216713E-01    0.297678E-01   -0.809647E-02
    120.00    0.154099E-02    0.186007E-01    0.101600E-01    0.844072E-02
    100.00    0.127359E-02    0.183333E-01    0.822313E-02    0.101102E-01
     80.00    0.101472E-02    0.180745E-01    0.634761E-02    0.117269E-01
     60.00    0.760143E-03    0.178199E-01    0.454110E-02    0.132788E-01
     40.00    0.506704E-03    0.175665E-01    0.282194E-02    0.147445E-01
     20.00    0.253352E-03    0.173131E-01    0.123540E-02    0.160777E-01
     10.00    0.126676E-03    0.171864E-01    0.529920E-03    0.166565E-01 (used)
   ------------------------------------------------------------------------

         :::::::::::::::::::::::::::::::::::::::::::::::::::::
         ::                  THERMODYNAMIC                  ::
         :::::::::::::::::::::::::::::::::::::::::::::::::::::
         :: total free energy         -11.020104363322 Eh   ::
         ::.................................................::
         :: total energy              -11.036760881912 Eh   ::
         :: zero point energy           0.017059762502 Eh   ::
         :: G(RRHO) w/o ZPVE           -0.000403243912 Eh   ::
         :: G(RRHO) contrib.            0.016656518590 Eh   ::
         :::::::::::::::::::::::::::::::::::::::::::::::::::::

           -------------------------------------------------
          | TOTAL ENERGY              -11.036760881912 Eh   |
          | TOTAL ENTHALPY            -11.019574443394 Eh   |
          | TOTAL FREE ENERGY         -11.020104363322 Eh   |
          | GRADIENT NORM               0.000618528701 Eh/Î± |
          | HOMO-LUMO GAP               1.971865766631 eV   |
           -------------------------------------------------

 * finished run on 2020/05/12 at 11:44:12.676
