 Gaussian 16, Revision B.01,

 --------------------------------------------------------
 #P M062X/cc-pvtz nosymm opt(noeigentest) optcyc=120 freq
 --------------------------------------------------------

 -----
 Title
 -----
 Symbolic Z-matrix:
 Charge =  0 Multiplicity = 2

 SCF Done:  E(UM062X) =  -92.7096594172     A.U. after   18 cycles
 SCF Done:  E(UM062X) =  -92.7096941738     A.U. after   10 cycles
 SCF Done:  E(UM062X) =  -92.7096943216     A.U. after    9 cycles
 Optimization completed.
    -- Stationary point found.
 Normal termination of Gaussian 16 at Fri Sep 25 11:32:29 2020.

 -------------------------------------------------------------------
 #P Geom=AllCheck Guess=TCheck SCRF=Check GenChk UM062X/CC-pVTZ Freq
 -------------------------------------------------------------------

 Structure from the checkpoint file:  "input.chk"
 -----
 Title
 -----
 Charge =  0 Multiplicity = 2

 SCF Done:  E(UM062X) =  -92.7096943216     A.U. after    1 cycles

  Exact polarizability:  15.034  -0.000  15.034  -0.000   0.000  20.966
 Approx polarizability:  12.671   0.000  12.671  -0.000  -0.000  33.012

                      1
                      A
 Frequencies --   2242.0658
 Red. masses --     12.8481
 Frc consts  --     38.0529
 IR Inten    --     13.9211

 - Thermochemistry -
 -------------------
 Temperature   298.150 Kelvin.  Pressure   1.00000 Atm.
 Atom     1 has atomic number  7 and mass  14.00307

 Molecular mass:    26.00307 amu.
 Principal axes and moments of inertia in atomic units:
                           1         2         3
     Eigenvalues --     0.00000  30.68423  30.68423
           X            0.00000  -0.00000   1.00000
           Y            0.00000   1.00000   0.00000
           Z            1.00000   0.00000   0.00000
 This molecule is a prolate symmetric top.
 Rotational symmetry number  1.
 Rotational temperature (Kelvin)      2.82275
 Rotational constant (GHZ):          58.816576
 Zero-point vibrational energy      13410.5 (Joules/Mol)
                                    3.20519 (Kcal/Mol)
 Vibrational temperatures:   3225.83
          (Kelvin)

 Zero-point correction=                           0.005108 (Hartree/Particle)
 Thermal correction to Energy=                    0.007468
 Thermal correction to Enthalpy=                  0.008413
 Thermal correction to Gibbs Free Energy=        -0.014550
 Sum of electronic and zero-point Energies=            -92.704587
 Sum of electronic and thermal Energies=               -92.702226
 Sum of electronic and thermal Enthalpies=             -92.701282
 Sum of electronic and thermal Free Energies=          -92.724244

                     E (Thermal)             CV                S
                      KCal/Mol        Cal/Mol-Kelvin    Cal/Mol-Kelvin
 Total                    4.687              4.973             48.328
 Electronic               0.000              0.000              1.377
 Translational            0.889              2.981             35.703
 Rotational               0.592              1.987             11.247
 Vibrational              3.205              0.005              0.000

 Optimization completed.
    -- Stationary point found.
 Normal termination of Gaussian 16 at Fri Sep 25 11:32:37 2020.
 Gaussian 16:  ES64L-G16RevB.01 20-Dec-2017

 -----------------------------------------------
 #P CCSD(T)/aug-cc-pvtz geom=allcheck guess=read
 -----------------------------------------------

 Structure from the checkpoint file:  "input.chk"
 -----
 Title
 -----
 Charge =  0 Multiplicity = 2

                         Standard orientation:
 ---------------------------------------------------------------------
 Center     Atomic      Atomic             Coordinates (Angstroms)
 Number     Number       Type             X           Y           Z
 ---------------------------------------------------------------------
      1          7           0        0.000000    0.000000    0.532202
      2          6           0        0.000000    0.000000   -0.620903
 ---------------------------------------------------------------------

 SCF Done:  E(UHF) =  -92.2364504414     A.U. after   16 cycles
 E2 =    -0.2823665490D+00 EUMP2 =    -0.92518816990400D+02
 CCSD(T)
 CCSD(T)= -0.92570007393D+02

 The electronic state is 2-SG.
 Alpha  occ. eigenvalues --  -15.60298 -11.35456  -1.25520  -0.73904  -0.56998
 Alpha  occ. eigenvalues --   -0.52455  -0.52455
 Alpha virt. eigenvalues --    0.06746   0.07339   0.07888   0.07888   0.13288
 Alpha virt. eigenvalues --    0.13288   0.15544   0.20425   0.20425   0.25646
 Alpha virt. eigenvalues --    0.28900   0.28900   0.35503   0.40655   0.40655

  Beta  occ. eigenvalues --  -15.62543 -11.30126  -1.26142  -0.61902  -0.53883
  Beta  occ. eigenvalues --   -0.53883
  Beta virt. eigenvalues --   -0.03963   0.07346   0.07541   0.07541   0.09989
  Beta virt. eigenvalues --    0.15667   0.15667   0.16362   0.21993   0.21993
  Beta virt. eigenvalues --    0.26188   0.29786   0.29786   0.36851   0.40127

 Mulliken charges and spin densities:
               1          2
     1  N   -0.149756  -0.733398
     2  C    0.149756   1.733398
 Sum of Mulliken charges =  -0.00000   1.00000

 Dipole moment (field-independent basis, Debye):
    X=              0.0000    Y=              0.0000    Z=             -2.2142  Tot=              2.2142
 Quadrupole moment (field-independent basis, Debye-Ang):
   XX=            -10.9919   YY=            -10.9919   ZZ=            -10.3804
   XY=              0.0000   XZ=              0.0000   YZ=             -0.0000

 3\MP4SDQ=-92.5349838\CCSD=-92.5515007\CCSD(T)=-92.5700074\S2=1.086313\
 Normal termination of Gaussian 16 at Fri Sep 25 11:33:33 2020.
