 Gaussian 16, Revision B.01,

 --------------------------------------------------------
 #P M062X/cc-pvtz nosymm opt(noeigentest) optcyc=120 freq
 --------------------------------------------------------

 -----
 Title
 -----
 Symbolic Z-matrix:
 Charge =  0 Multiplicity = 2

 SCF Done:  E(UM062X) =  -75.7304845830     A.U. after  103 cycles
 SCF Done:  E(UM062X) =  -75.7304867898     A.U. after  122 cycles
 Optimization completed.
    -- Stationary point found.
 Normal termination of Gaussian 16 at Fri Oct  2 21:29:20 2020.

 -------------------------------------------------------------------
 #P Geom=AllCheck Guess=TCheck SCRF=Check GenChk UM062X/CC-pVTZ Freq
 -------------------------------------------------------------------

 Structure from the checkpoint file:  "input.chk"
 -----
 Title
 -----
 Charge =  0 Multiplicity = 2

 SCF Done:  E(UM062X) =  -75.7304867898     A.U. after    1 cycles

  Exact polarizability:   3.879  -0.010   3.996   0.000   0.000   7.034
 Approx polarizability:   3.907   0.009   3.824   0.000  -0.000   7.388

                      1
                      A
 Frequencies --   3777.1338
 Red. masses --      1.0671
 Frc consts  --      8.9697
 IR Inten    --     18.6325

 - Thermochemistry -
 -------------------
 Temperature   298.150 Kelvin.  Pressure   1.00000 Atm.
 Atom     1 has atomic number  8 and mass  15.99491

 Molecular mass:    17.00274 amu.
 Principal axes and moments of inertia in atomic units:
                           1         2         3
     Eigenvalues --     0.00000   3.19458   3.19458
           X            0.00000  -0.00000   1.00000
           Y            0.00000   1.00000   0.00000
           Z            1.00000   0.00000   0.00000
 This molecule is a prolate symmetric top.
 Rotational symmetry number  1.
 Rotational temperature (Kelvin)     27.11278
 Rotational constant (GHZ):         564.938558
 Zero-point vibrational energy      22592.3 (Joules/Mol)
                                    5.39968 (Kcal/Mol)
 Vibrational temperatures:   5434.45
          (Kelvin)

 Zero-point correction=                           0.008605 (Hartree/Particle)
 Thermal correction to Energy=                    0.010965
 Thermal correction to Enthalpy=                  0.011910
 Thermal correction to Gibbs Free Energy=        -0.008315
 Sum of electronic and zero-point Energies=            -75.721882
 Sum of electronic and thermal Energies=               -75.719521
 Sum of electronic and thermal Enthalpies=             -75.718577
 Sum of electronic and thermal Free Energies=          -75.738802

                     E (Thermal)             CV                S
                      KCal/Mol        Cal/Mol-Kelvin    Cal/Mol-Kelvin
 Total                    6.881              4.968             42.566
 Electronic               0.000              0.000              1.377
 Translational            0.889              2.981             34.437
 Rotational               0.592              1.987              6.752
 Vibrational              5.400              0.000              0.000

 Optimization completed.
    -- Stationary point found.
 Normal termination of Gaussian 16 at Fri Oct  2 21:29:26 2020.
 Gaussian 16:  ES64L-G16RevB.01 20-Dec-2017

 -------------------------------------------------
 #P ROCCSD(T)/aug-cc-pvtz geom=allcheck guess=read
 -------------------------------------------------

 Structure from the checkpoint file:  "input.chk"
 -----
 Title
 -----
 Charge =  0 Multiplicity = 2

                         Standard orientation:
 ---------------------------------------------------------------------
 Center     Atomic      Atomic             Coordinates (Angstroms)
 Number     Number       Type             X           Y           Z
 ---------------------------------------------------------------------
      1          8           0        0.000000    0.000000    0.107930
      2          1           0        0.000000    0.000000   -0.863438
 ---------------------------------------------------------------------

 SCF Done:  E(ROHF) =  -75.4165927762     A.U. after   11 cycles
 E2 =    -0.2101094831D+00 EUMP2 =    -0.75626702259395D+02
 CCSD(T)
 CCSD(T)= -0.75645550726D+02

 Unable to determine electronic state:  partially filled degenerate orbitals.
 Alpha  occ. eigenvalues --  -20.63918  -1.37896  -0.68128  -0.64698  -0.55691
 Alpha virt. eigenvalues --    0.02977   0.13659   0.15314   0.16239   0.18346
 Alpha virt. eigenvalues --    0.26203   0.26841   0.27463   0.42668   0.62781
 Alpha virt. eigenvalues --    0.63778   0.64658   0.71372   0.72704   0.85513

 Mulliken charges and spin densities:
               1          2
     1  O   -0.274121   0.978283
     2  H    0.274121   0.021717
 Sum of Mulliken charges =  -0.00000   1.00000

 Dipole moment (field-independent basis, Debye):
    X=              0.0000    Y=             -0.0000    Z=             -1.7624  Tot=              1.7624
 Quadrupole moment (field-independent basis, Debye-Ang):
   XX=             -5.4473   YY=             -6.7059   ZZ=             -4.5231
   XY=             -0.1391   XZ=             -0.0000   YZ=              0.0000

 =-75.6267023\MP4SDQ=-75.6393589\CCSD=-75.6395961\CCSD(T)=-75.6455507\R
 Normal termination of Gaussian 16 at Fri Oct  2 21:29:43 2020.
