   * xtb version 6.2.2 (9d81278992624c895f80dd42a50cac0aa55982e2) compiled by '@Darwin' on 04/03/2020
          program call               : xtb --input H2O1_0_S_0.input H2O1_0_S_0.xyz --ohess --molden --namespace H2O1_0_S_0 output.out
          number of atoms            :                     3
          number of electrons        :                     8
          charge                     :                     0
          spin                       :                   0.0

   ID    Z sym.   atoms
    1    8 O      1
    2    1 H      2, 3

          :  Hamiltonian                  GFN2-xTB          :
 * total energy  :    -5.0689800 Eh     change       -0.1298517E-11 Eh
 * total energy  :    -5.0703649 Eh     change       -0.1384893E-02 Eh
 * total energy  :    -5.0705334 Eh     change       -0.1685624E-03 Eh
 * total energy  :    -5.0705430 Eh     change       -0.9594480E-05 Eh
 * total energy  :    -5.0705441 Eh     change       -0.1057007E-05 Eh
   *** GEOMETRY OPTIMIZATION CONVERGED AFTER 5 ITERATIONS ***

 final structure:
================
3
 xtb: 6.2.2 (9d81278992624c895f80dd42a50cac0aa55982e2)
O        -0.00116649494564    0.37886401156316    0.00000000000000
H        -0.77228904075400   -0.19181212854445    0.00000000000000
H         0.77345553569964   -0.18705288301871    0.00000000000000

          :  Hamiltonian                  GFN2-xTB          :
         :: gradient norm              0.000335765929 Eh/a0 ::
         :: HOMO-LUMO gap             14.376767782057 eV    ::
         :: SCC energy                -5.104873028833 Eh    ::
         :: -> dispersion             -0.000141078639 Eh    ::
         :: repulsion energy           0.034328933774 Eh    ::

    * Orbital Energies and Occupations

         #    Occupation            Energy/Eh            Energy/eV
      -------------------------------------------------------------
         1        2.0000           -0.6800057             -18.5039
         2        2.0000           -0.5683772             -15.4663
         3        2.0000           -0.5106969             -13.8968
         4        2.0000           -0.4463314             -12.1453 (HOMO)
         5                          0.0820051               2.2315 (LUMO)
         6                          0.2516647               6.8481
      -------------------------------------------------------------
                  HL-Gap            0.5283365 Eh           14.3768 eV

     #   Z        covCN         q      C6AA      α(0)
     1   8 O      1.611    -0.565    24.359     6.661
     2   1 H      0.805     0.282     0.776     1.384
     3   1 H      0.805     0.282     0.776     1.384

Wiberg/Mayer (AO) data.
largest (>0.10) Wiberg bond orders for each atom
          total WBO             WBO to atom ...

molecular dipole:
                 x           y           z       tot (Debye)
 q only:        0.002      -0.607       0.000
   full:        0.003      -0.871       0.000       2.215

 projected vibrational frequencies (cm-1)
eigval :       -0.00    -0.00    -0.00     0.00     0.00     0.00
eigval :     1538.86  3641.56  3650.53

   temp. (K)  partition function   enthalpy   heat capacity  entropy
                                   cal/mol     cal/K/mol   cal/K/mol   J/K/mol
  10.00  VIB   1.00                    0.000      0.000     -0.000
         ROT  0.261                   29.809      2.981      0.314
         INT  0.261                   29.809      2.981      0.314
         TR   0.454E+24               49.681      4.968     17.735
         TOT                          79.4904     7.9490    18.0490    75.5169

       T/K    H(0)-H(T)+PV         H(T)/Eh          T*S/Eh         G(T)/Eh
   ------------------------------------------------------------------------
    298.15    0.378102E-02    0.238994E-01    0.213989E-01    0.250050E-02
    120.00    0.152011E-02    0.216385E-01    0.722773E-02    0.144108E-01
    100.00    0.126676E-02    0.213851E-01    0.579222E-02    0.155929E-01
     80.00    0.101341E-02    0.211318E-01    0.440771E-02    0.167241E-01
     60.00    0.760056E-03    0.208784E-01    0.308719E-02    0.177912E-01
     40.00    0.506704E-03    0.206251E-01    0.185274E-02    0.187723E-01
     20.00    0.253352E-03    0.203717E-01    0.750814E-03    0.196209E-01
     10.00    0.126676E-03    0.202451E-01    0.287629E-03    0.199574E-01 (used)
   ------------------------------------------------------------------------

         :::::::::::::::::::::::::::::::::::::::::::::::::::::
         ::                  THERMODYNAMIC                  ::
         :::::::::::::::::::::::::::::::::::::::::::::::::::::
         :: total free energy          -5.050586662614 Eh   ::
         ::.................................................::
         :: total energy               -5.070544095033 Eh   ::
         :: zero point energy           0.020118385107 Eh   ::
         :: G(RRHO) w/o ZPVE           -0.000160952688 Eh   ::
         :: G(RRHO) contrib.            0.019957432420 Eh   ::
         :::::::::::::::::::::::::::::::::::::::::::::::::::::

           -------------------------------------------------
          | TOTAL ENERGY               -5.070544095033 Eh   |
          | TOTAL ENTHALPY             -5.050299033910 Eh   |
          | TOTAL FREE ENERGY          -5.050586662614 Eh   |
          | GRADIENT NORM               0.000335765071 Eh/α |
          | HOMO-LUMO GAP              14.376767853599 eV   |
           -------------------------------------------------

 * finished run on 2020/05/12 at 11:44:27.493
