   * xtb version 6.2.2 (9d81278992624c895f80dd42a50cac0aa55982e2) compiled by '@Darwin' on 04/03/2020
          program call               : xtb --input C4_1_S_2.input C4_1_S_2.xyz --ohess --molden --namespace C4_1_S_2 output.out
          number of atoms            :                     4
          number of electrons        :                    16
          charge                     :                     0
          spin                       :                   1.0

   ID    Z sym.   atoms
    1    6 C      1-4

          :  Hamiltonian                  GFN2-xTB          :
 * total energy  :    -8.0055427 Eh     change       -0.1181810E-09 Eh
 * total energy  :    -8.1157909 Eh     change       -0.1102481E+00 Eh
 * total energy  :    -8.1382151 Eh     change       -0.2242420E-01 Eh
 * total energy  :    -8.1620137 Eh     change       -0.2379864E-01 Eh
 * total energy  :    -8.1639057 Eh     change       -0.1891976E-02 Eh
 * total energy  :    -8.1713952 Eh     change       -0.7489491E-02 Eh
 * total energy  :    -8.1722386 Eh     change       -0.8434064E-03 Eh
 * total energy  :    -8.1725121 Eh     change       -0.2734999E-03 Eh
 * total energy  :    -8.1729909 Eh     change       -0.4787739E-03 Eh
 * total energy  :    -8.1732485 Eh     change       -0.2575883E-03 Eh
 * total energy  :    -8.1695237 Eh     change        0.3724802E-02 Eh
 * total energy  :    -8.1735977 Eh     change       -0.4074014E-02 Eh
 * total energy  :    -8.1736600 Eh     change       -0.6232313E-04 Eh
 * total energy  :    -8.1738462 Eh     change       -0.1862047E-03 Eh
 * total energy  :    -8.1740181 Eh     change       -0.1718687E-03 Eh
 * total energy  :    -8.1740982 Eh     change       -0.8013003E-04 Eh
 * total energy  :    -8.1741251 Eh     change       -0.2685893E-04 Eh
 * total energy  :    -8.1741336 Eh     change       -0.8517669E-05 Eh
 * total energy  :    -8.1741346 Eh     change       -0.9889508E-06 Eh
   *** GEOMETRY OPTIMIZATION CONVERGED AFTER 19 ITERATIONS ***

 final structure:
================
4
 xtb: 6.2.2 (9d81278992624c895f80dd42a50cac0aa55982e2)
C         1.90622601292902    0.00327922817829   -0.06418881114912
C         0.67007148593117   -0.00382193572192   -0.02579509833818
C        -0.67008668119749   -0.00416893924434    0.02549069085315
C        -1.90621081766270    0.00471164678795    0.06449221863415

          :  Hamiltonian                  GFN2-xTB          :
         :: gradient norm              0.000688148648 Eh/a0 ::
         :: HOMO-LUMO gap              3.966159648038 eV    ::
         :: SCC energy                -8.397662350171 Eh    ::
         :: -> dispersion             -0.001878309249 Eh    ::
         :: repulsion energy           0.223527902643 Eh    ::

    * Orbital Energies and Occupations

         #    Occupation            Energy/Eh            Energy/eV
      -------------------------------------------------------------
         1        2.0000           -0.6764658             -18.4076
         2        2.0000           -0.6653664             -18.1055
         3        2.0000           -0.6127359             -16.6734
         4        2.0000           -0.5160035             -14.0412
         5        2.0000           -0.5160026             -14.0411
         6        2.0000           -0.4618426             -12.5674
         7        1.5006           -0.4451596             -12.1134
         8        1.4994           -0.4451553             -12.1133
         9        1.0000           -0.4291541             -11.6779 (HOMO)
        10                         -0.2834004              -7.7117 (LUMO)
        11                         -0.2833981              -7.7117
        12                         -0.1284153              -3.4944
        13                         -0.1284039              -3.4940
        14                          0.1583695               4.3095
        15                          0.8362171              22.7546
        16                          1.3176697              35.8556
      -------------------------------------------------------------
                  HL-Gap            0.1457537 Eh            3.9662 eV

     #   Z        covCN         q      C6AA      Î±(0)
     1   6 C      0.982    -0.069    38.079    10.365
     2   6 C      1.963     0.069    29.328     8.746
     3   6 C      1.963     0.069    29.328     8.746
     4   6 C      0.982    -0.069    38.079    10.365

Wiberg/Mayer (AO) data.
largest (>0.10) Wiberg bond orders for each atom
          total WBO             WBO to atom ...

molecular dipole:
                 x           y           z       tot (Debye)
 q only:       -0.000      -0.002      -0.000
   full:       -0.000      -0.006      -0.000       0.014

 projected vibrational frequencies (cm-1)
eigval :       -0.00    -0.00    -0.00     0.00     0.00     0.00
eigval :      137.57   245.34   265.83   954.76  1851.17  2104.79

   temp. (K)  partition function   enthalpy   heat capacity  entropy
                                   cal/mol     cal/K/mol   cal/K/mol   J/K/mol
  10.00  VIB   1.00                    0.000      0.000     -0.019
         ROT   1.43                   29.809      2.981      3.696
         INT   1.43                   29.809      2.981      3.677
         TR   0.198E+25               49.681      4.968     20.657
         TOT                          79.4904     7.9490    24.3343   101.8149

       T/K    H(0)-H(T)+PV         H(T)/Eh          T*S/Eh         G(T)/Eh
   ------------------------------------------------------------------------
    298.15    0.544513E-02    0.181105E-01    0.273998E-01   -0.928926E-02
    120.00    0.178372E-02    0.144491E-01    0.881636E-02    0.563274E-02
    100.00    0.142803E-02    0.140934E-01    0.702332E-02    0.707009E-02
     80.00    0.109504E-02    0.137604E-01    0.532206E-02    0.843836E-02
     60.00    0.789282E-03    0.134547E-01    0.372829E-02    0.972638E-02
     40.00    0.511434E-03    0.131768E-01    0.226073E-02    0.109161E-01
     20.00    0.253384E-03    0.129188E-01    0.951618E-03    0.119671E-01
     10.00    0.126676E-03    0.127921E-01    0.387792E-03    0.124043E-01 (used)
   ------------------------------------------------------------------------

         :::::::::::::::::::::::::::::::::::::::::::::::::::::
         ::                  THERMODYNAMIC                  ::
         :::::::::::::::::::::::::::::::::::::::::::::::::::::
         :: total free energy          -8.161730294263 Eh   ::
         ::.................................................::
         :: total energy               -8.174134561039 Eh   ::
         :: zero point energy           0.012665383248 Eh   ::
         :: G(RRHO) w/o ZPVE           -0.000261116472 Eh   ::
         :: G(RRHO) contrib.            0.012404266776 Eh   ::
         :::::::::::::::::::::::::::::::::::::::::::::::::::::

           -------------------------------------------------
          | TOTAL ENERGY               -8.174134561039 Eh   |
          | TOTAL ENTHALPY             -8.161342501774 Eh   |
          | TOTAL FREE ENERGY          -8.161730294263 Eh   |
          | GRADIENT NORM               0.000688215380 Eh/Î± |
          | HOMO-LUMO GAP               3.966160443425 eV   |
           -------------------------------------------------

 * finished run on 2020/05/12 at 14:38:39.860
