   * xtb version 6.2.2 (9d81278992624c895f80dd42a50cac0aa55982e2) compiled by '@Darwin' on 04/03/2020
          program call               : xtb --input C5_12_S_2.input C5_12_S_2.xyz --ohess --molden --namespace C5_12_S_2 output.out
          number of atoms            :                     5
          number of electrons        :                    20
          charge                     :                     0
          spin                       :                   1.0

   ID    Z sym.   atoms
    1    6 C      1-5

          :  Hamiltonian                  GFN2-xTB          :
 * total energy  :   -10.1100147 Eh     change       -0.1917060E-08 Eh
 * total energy  :   -10.1219294 Eh     change       -0.1191474E-01 Eh
 * total energy  :   -10.1571353 Eh     change       -0.3520586E-01 Eh
 * total energy  :   -10.1782233 Eh     change       -0.2108798E-01 Eh
 * total energy  :   -10.1782650 Eh     change       -0.4171732E-04 Eh
 * total energy  :   -10.1782695 Eh     change       -0.4513911E-05 Eh
   *** GEOMETRY OPTIMIZATION CONVERGED AFTER 6 ITERATIONS ***

 final structure:
================
5
 xtb: 6.2.2 (9d81278992624c895f80dd42a50cac0aa55982e2)
C         0.83124117122754   -0.12853489347162   -0.50862377014572
C         0.51395965503061   -0.30532470471809    0.91713179621582
C        -0.63169491888397   -0.74562460984370    0.10576790849613
C        -0.19954060190295    0.87413922494769    0.40284690263761
C        -0.51396530547123    0.30534498308572   -0.91712283720384

          :  Hamiltonian                  GFN2-xTB          :
         :: gradient norm              0.000298441708 Eh/a0 ::
         :: HOMO-LUMO gap              3.475537048479 eV    ::
         :: SCC energy               -10.309679268975 Eh    ::
         :: -> dispersion             -0.002361032736 Eh    ::
         :: repulsion energy           0.131409766472 Eh    ::

    * Orbital Energies and Occupations

         #    Occupation            Energy/Eh            Energy/eV
      -------------------------------------------------------------
         1        2.0000           -0.7628708             -20.7588
         2        2.0000           -0.6564311             -17.8624
         3        2.0000           -0.6279744             -17.0881
         4        2.0000           -0.6279678             -17.0879
         5        2.0000           -0.5229845             -14.2311
         6        2.0000           -0.5229825             -14.2311
         7        2.0000           -0.4892071             -13.3120
         8        1.7839           -0.4620719             -12.5736
         9        1.7833           -0.4620684             -12.5735
        10        1.4328           -0.4605906             -12.5333
        11        1.0000           -0.4071090             -11.0780 (HOMO)
        12                         -0.2793855              -7.6025 (LUMO)
        13                         -0.2793704              -7.6021
        14                         -0.2312634              -6.2930
        15                          0.0171706               0.4672
        16                          0.0171873               0.4677
        17                          0.0629492               1.7129
        18                          0.0629680               1.7134
        19                          0.2242793               6.1029
        20                          0.3750890              10.2067
      -------------------------------------------------------------
                  HL-Gap            0.1277236 Eh            3.4755 eV

     #   Z        covCN         q      C6AA      Î±(0)
     1   6 C      3.806     0.005    20.496     6.445
     2   6 C      3.090    -0.007    28.090     8.687
     3   6 C      3.806     0.005    20.496     6.445
     4   6 C      3.806     0.005    20.497     6.445
     5   6 C      3.090    -0.007    28.090     8.687

Wiberg/Mayer (AO) data.
largest (>0.10) Wiberg bond orders for each atom
          total WBO             WBO to atom ...

molecular dipole:
                 x           y           z       tot (Debye)
 q only:        0.000      -0.000      -0.000
   full:        0.000      -0.000      -0.000       0.001

 projected vibrational frequencies (cm-1)
eigval :       -0.00    -0.00    -0.00     0.00     0.00     0.00
eigval :     -656.49  -656.14   460.60   461.17   748.13   748.21
eigval :      766.81  1301.29  1398.12

   temp. (K)  partition function   enthalpy   heat capacity  entropy
                                   cal/mol     cal/K/mol   cal/K/mol   J/K/mol
  10.00  VIB   1.00                    0.000      0.000     -0.001
         ROT   21.3                   29.809      2.981      9.061
         INT   21.3                   29.809      2.981      9.060
         TR   0.277E+25               49.681      4.968     21.322
         TOT                          79.4904     7.9490    30.3822   127.1191

       T/K    H(0)-H(T)+PV         H(T)/Eh          T*S/Eh         G(T)/Eh
   ------------------------------------------------------------------------
    298.15    0.458289E-02    0.179884E-01    0.283550E-01   -0.103666E-01
    120.00    0.153813E-02    0.149436E-01    0.960758E-02    0.533604E-02
    100.00    0.127251E-02    0.146780E-01    0.776437E-02    0.691363E-02
     80.00    0.101448E-02    0.144200E-01    0.598134E-02    0.843863E-02
     60.00    0.760123E-03    0.141656E-01    0.426658E-02    0.989904E-02
     40.00    0.506704E-03    0.139122E-01    0.263894E-02    0.112733E-01
     20.00    0.253352E-03    0.136588E-01    0.114391E-02    0.125149E-01
     10.00    0.126676E-03    0.135322E-01    0.484171E-03    0.130480E-01 (used)
   ------------------------------------------------------------------------

         :::::::::::::::::::::::::::::::::::::::::::::::::::::
         ::                  THERMODYNAMIC                  ::
         :::::::::::::::::::::::::::::::::::::::::::::::::::::
         :: total free energy         -10.165221490766 Eh   ::
         ::.................................................::
         :: total energy              -10.178269489104 Eh   ::
         :: zero point energy           0.013405493587 Eh   ::
         :: G(RRHO) w/o ZPVE           -0.000357495249 Eh   ::
         :: G(RRHO) contrib.            0.013047998338 Eh   ::
         :::::::::::::::::::::::::::::::::::::::::::::::::::::

           -------------------------------------------------
          | TOTAL ENERGY              -10.178269489104 Eh   |
          | TOTAL ENTHALPY            -10.164737319501 Eh   |
          | TOTAL FREE ENERGY         -10.165221490766 Eh   |
          | GRADIENT NORM               0.000298453699 Eh/Î± |
          | HOMO-LUMO GAP               3.475535034781 eV   |
           -------------------------------------------------

 * finished run on 2020/05/12 at 11:44:36.877
