   * xtb version 6.2.2 (9d81278992624c895f80dd42a50cac0aa55982e2) compiled by '@Darwin' on 04/03/2020
          program call               : xtb --input H1C3N1_30_S_2.input H1C3N1_30_S_2.xyz --ohess --molden --namespace H1C3N1_30_S_2 output.out
          number of atoms            :                     5
          number of electrons        :                    18
          charge                     :                     0
          spin                       :                   1.0

   ID    Z sym.   atoms
    1    7 N      1
    2    6 C      2-4
    3    1 H      5

          :  Hamiltonian                  GFN2-xTB          :
 * total energy  :    -9.4589482 Eh     change       -0.7504148E-09 Eh
 * total energy  :    -9.5002348 Eh     change       -0.4128657E-01 Eh
 * total energy  :    -9.5136976 Eh     change       -0.1346281E-01 Eh
 * total energy  :    -9.5168893 Eh     change       -0.3191776E-02 Eh
 * total energy  :    -9.5174923 Eh     change       -0.6029861E-03 Eh
 * total energy  :    -9.5178861 Eh     change       -0.3937900E-03 Eh
 * total energy  :    -9.5180114 Eh     change       -0.1252904E-03 Eh
 * total energy  :    -9.5180680 Eh     change       -0.5656394E-04 Eh
 * total energy  :    -9.5180803 Eh     change       -0.1237675E-04 Eh
 * total energy  :    -9.5180879 Eh     change       -0.7580203E-05 Eh
 * total energy  :    -9.5180908 Eh     change       -0.2894440E-05 Eh
   *** GEOMETRY OPTIMIZATION CONVERGED AFTER 11 ITERATIONS ***

 final structure:
================
5
 xtb: 6.2.2 (9d81278992624c895f80dd42a50cac0aa55982e2)
N        -1.06642300400402   -0.44004467127136   -0.18172397568336
C        -0.02590670374650    0.45738884281233   -0.14631340012848
C         1.14685186366498   -0.47219650114989   -0.19102300386077
C         0.02476578356464   -1.03680012192387    0.38826527874935
H        -0.07928793947911    1.49165245153278    0.13079410092326

          :  Hamiltonian                  GFN2-xTB          :
         :: gradient norm              0.000594671271 Eh/a0 ::
         :: HOMO-LUMO gap              3.066474250008 eV    ::
         :: SCC energy                -9.638795981151 Eh    ::
         :: -> dispersion             -0.002015951027 Eh    ::
         :: repulsion energy           0.120705124943 Eh    ::

    * Orbital Energies and Occupations

         #    Occupation            Energy/Eh            Energy/eV
      -------------------------------------------------------------
         1        2.0000           -0.7422130             -20.1966
         2        2.0000           -0.6525524             -17.7569
         3        2.0000           -0.6330399             -17.2259
         4        2.0000           -0.5760032             -15.6738
         5        2.0000           -0.5394007             -14.6778
         6        2.0000           -0.5232280             -14.2378
         7        2.0000           -0.4898160             -13.3286
         8        2.0000           -0.4290181             -11.6742
         9        1.0000           -0.4071039             -11.0779
        10        1.0000           -0.3773533             -10.2683 (HOMO)
        11                         -0.2646625              -7.2018 (LUMO)
        12                         -0.2514707              -6.8429
        13                          0.0154682               0.4209
        14                          0.0909962               2.4761
        15                          0.2147193               5.8428
        16                          0.3071239               8.3573
        17                          0.3800911              10.3428
      -------------------------------------------------------------
                  HL-Gap            0.1126908 Eh            3.0665 eV

     #   Z        covCN         q      C6AA      Î±(0)
     1   7 N      1.886    -0.196    26.082     7.571
     2   6 C      3.780     0.146    18.247     6.085
     3   6 C      2.024    -0.142    35.026     9.558
     4   6 C      2.857     0.106    25.649     8.301
     5   1 H      0.926     0.086     1.917     2.165

Wiberg/Mayer (AO) data.
largest (>0.10) Wiberg bond orders for each atom
          total WBO             WBO to atom ...

molecular dipole:
                 x           y           z       tot (Debye)
 q only:        0.072       0.451       0.177
   full:       -0.123       0.794       0.469       2.365

 projected vibrational frequencies (cm-1)
eigval :       -0.00    -0.00     0.00     0.00     0.00     0.00
eigval :      563.61   628.19   684.92   830.35   897.46   981.00
eigval :     1355.92  1438.73  3127.00

   temp. (K)  partition function   enthalpy   heat capacity  entropy
                                   cal/mol     cal/K/mol   cal/K/mol   J/K/mol
  10.00  VIB   1.00                    0.000      0.000     -0.000
         ROT   86.2                   29.809      2.981     11.838
         INT   86.2                   29.809      2.981     11.837
         TR   0.217E+25               49.681      4.968     20.838
         TOT                          79.4904     7.9490    32.6751   136.7127

       T/K    H(0)-H(T)+PV         H(T)/Eh          T*S/Eh         G(T)/Eh
   ------------------------------------------------------------------------
    298.15    0.440144E-02    0.283386E-01    0.291551E-01   -0.816549E-03
    120.00    0.152578E-02    0.254629E-01    0.100312E-01    0.154317E-01
    100.00    0.126807E-02    0.252052E-01    0.812457E-02    0.170806E-01
     80.00    0.101356E-02    0.249507E-01    0.627258E-02    0.186781E-01
     60.00    0.760061E-03    0.246972E-01    0.448572E-02    0.202115E-01
     40.00    0.506704E-03    0.244438E-01    0.278508E-02    0.216588E-01
     20.00    0.253352E-03    0.241905E-01    0.121698E-02    0.229735E-01
     10.00    0.126676E-03    0.240638E-01    0.520711E-03    0.235431E-01 (used)
   ------------------------------------------------------------------------

         :::::::::::::::::::::::::::::::::::::::::::::::::::::
         ::                  THERMODYNAMIC                  ::
         :::::::::::::::::::::::::::::::::::::::::::::::::::::
         :: total free energy          -9.494547715708 Eh   ::
         ::.................................................::
         :: total energy               -9.518090822992 Eh   ::
         :: zero point energy           0.023937142270 Eh   ::
         :: G(RRHO) w/o ZPVE           -0.000394034986 Eh   ::
         :: G(RRHO) contrib.            0.023543107284 Eh   ::
         :::::::::::::::::::::::::::::::::::::::::::::::::::::

           -------------------------------------------------
          | TOTAL ENERGY               -9.518090822992 Eh   |
          | TOTAL ENTHALPY             -9.494027004706 Eh   |
          | TOTAL FREE ENERGY          -9.494547715708 Eh   |
          | GRADIENT NORM               0.000594672427 Eh/Î± |
          | HOMO-LUMO GAP               3.066473755670 eV   |
           -------------------------------------------------

 * finished run on 2020/05/12 at 11:45:02.122
