 Gaussian 16, Revision B.01,
 Gaussian 16:  ES64L-G16RevB.01 20-Dec-2017

 ----------------------
 #P CCSD(T)/aug-cc-pvtz
 ----------------------

 -----
 Title
 -----
 Symbolic Z-matrix:
 Charge =  0 Multiplicity = 2

                         Standard orientation:
 ---------------------------------------------------------------------
 Center     Atomic      Atomic             Coordinates (Angstroms)
 Number     Number       Type             X           Y           Z
 ---------------------------------------------------------------------
      1          9           0        0.000000    0.000000    0.000000
 ---------------------------------------------------------------------

 SCF Done:  E(UHF) =  -99.4068793692     A.U. after    9 cycles
 E2 =    -0.2052267536D+00 EUMP2 =    -0.99612106122877D+02
 CCSD(T)
 CCSD(T)= -0.99627826810D+02

 Unable to determine electronic state:  an orbital has unidentified symmetry.
 Alpha  occ. eigenvalues --  -26.41156  -1.67449  -0.84550  -0.73207  -0.73207
 Alpha virt. eigenvalues --    0.18609   0.19456   0.19606   0.19606   0.84802
 Alpha virt. eigenvalues --    0.85454   0.85454   0.87464   0.87464   1.06051
 Alpha virt. eigenvalues --    1.10887   1.10887   1.59494   2.74389   2.76130

  Beta  occ. eigenvalues --  -26.36354  -1.47926  -0.68029  -0.68029
  Beta virt. eigenvalues --    0.03555   0.19814   0.19814   0.20184   0.24442
  Beta virt. eigenvalues --    0.87281   0.87281   0.87490   0.87490   0.87603
  Beta virt. eigenvalues --    1.12417   1.12417   1.21080   1.63923   2.82596

 Mulliken charges and spin densities:
               1          2
     1  F   -0.000000   1.000000
 Sum of Mulliken charges =  -0.00000   1.00000

 Dipole moment (field-independent basis, Debye):
    X=              0.0000    Y=              0.0000    Z=              0.0000  Tot=              0.0000
 Quadrupole moment (field-independent basis, Debye-Ang):
   XX=             -4.9147   YY=             -4.9147   ZZ=             -3.9976
   XY=              0.0000   XZ=              0.0000   YZ=             -0.0000

 -99.6232588\CCSD=-99.6234522\CCSD(T)=-99.6278268\S2=0.754134\S2-1=0.75
 Normal termination of Gaussian 16 at Mon Oct  5 21:23:23 2020.
