   * xtb version 6.2.2 (9d81278992624c895f80dd42a50cac0aa55982e2) compiled by '@Darwin' on 04/03/2020
          program call               : xtb --input C4N1_46_S_3.input C4N1_46_S_3.xyz --ohess --molden --namespace C4N1_46_S_3 output.out
          number of atoms            :                     5
          number of electrons        :                    21
          charge                     :                     0
          spin                       :                   1.5

   ID    Z sym.   atoms
    1    6 C      1, 3-5
    2    7 N      2

          :  Hamiltonian                  GFN2-xTB          :
 * total energy  :   -10.8617119 Eh     change       -0.3445383E-08 Eh
 * total energy  :   -10.8783768 Eh     change       -0.1666491E-01 Eh
 * total energy  :   -10.8859273 Eh     change       -0.7550523E-02 Eh
 * total energy  :   -10.8864178 Eh     change       -0.4904377E-03 Eh
 * total energy  :   -10.8867264 Eh     change       -0.3086012E-03 Eh
 * total energy  :   -10.8876701 Eh     change       -0.9436868E-03 Eh
 * total energy  :   -10.8898827 Eh     change       -0.2212596E-02 Eh
 * total energy  :   -10.8966646 Eh     change       -0.6781975E-02 Eh
 * total energy  :   -10.9106122 Eh     change       -0.1394757E-01 Eh
 * total energy  :   -10.8926927 Eh     change        0.1791950E-01 Eh
 * total energy  :   -10.9823488 Eh     change       -0.5577257E-04 Eh
 * total energy  :   -10.9824844 Eh     change       -0.1355619E-03 Eh
 * total energy  :   -10.9826167 Eh     change       -0.1323221E-03 Eh
 * total energy  :   -10.9827080 Eh     change       -0.9128709E-04 Eh
 * total energy  :   -10.9827203 Eh     change       -0.1229323E-04 Eh
 * total energy  :   -10.9827241 Eh     change       -0.3843252E-05 Eh
 * total energy  :   -10.9827259 Eh     change       -0.1768808E-05 Eh
 * total energy  :   -10.9827283 Eh     change       -0.2387807E-05 Eh
 * total energy  :   -10.9827299 Eh     change       -0.1645427E-05 Eh
   *** GEOMETRY OPTIMIZATION CONVERGED AFTER 36 ITERATIONS ***

 final structure:
================
5
 xtb: 6.2.2 (9d81278992624c895f80dd42a50cac0aa55982e2)
C         0.19376860607207    1.03764249676777    0.01170261146231
N        -0.23438482559755    0.08465255034890    0.98987727752757
C        -0.20942462500217    0.09922985559769   -1.05599948370968
C         0.84063244926423   -0.34660172353924    0.06544264707097
C        -0.59059160473658   -0.87492317917512   -0.01102305235118

          :  Hamiltonian                  GFN2-xTB          :
         :: gradient norm              0.000555100323 Eh/a0 ::
         :: HOMO-LUMO gap              4.146955211932 eV    ::
         :: SCC energy               -11.091516468796 Eh    ::
         :: -> dispersion             -0.002597236650 Eh    ::
         :: repulsion energy           0.108786512210 Eh    ::

    * Orbital Energies and Occupations

         #    Occupation            Energy/Eh            Energy/eV
      -------------------------------------------------------------
         1        2.0000           -0.7835823             -21.3224
         2        2.0000           -0.6702619             -18.2388
         3        2.0000           -0.6679070             -18.1747
         4        2.0000           -0.6322537             -17.2045
         5        2.0000           -0.5635419             -15.3348
         6        2.0000           -0.5187736             -14.1165
         7        2.0000           -0.5150780             -14.0160
         8        2.0000           -0.4916359             -13.3781
         9        2.0000           -0.4833021             -13.1513
        10        1.0000           -0.4627741             -12.5927
        11        1.0000           -0.4082993             -11.1104
        12        1.0000           -0.3993236             -10.8661 (HOMO)
        13                         -0.2469259              -6.7192 (LUMO)
        14                         -0.1695204              -4.6129
        15                         -0.1428437              -3.8870
        16                          0.0077484               0.2108
        17                          0.0677872               1.8446
        18                          0.1026215               2.7925
        19                          0.1145153               3.1161
        20                          0.3316631               9.0250
      -------------------------------------------------------------
                  HL-Gap            0.1523977 Eh            4.1470 eV

     #   Z        covCN         q      C6AA      Î±(0)
     1   6 C      3.215    -0.014    27.664     8.557
     2   7 N      2.990    -0.079    22.768     7.087
     3   6 C      3.188    -0.009    27.767     8.597
     4   6 C      3.819     0.116    18.677     6.150
     5   6 C      3.215    -0.014    27.669     8.558

Wiberg/Mayer (AO) data.
largest (>0.10) Wiberg bond orders for each atom
          total WBO             WBO to atom ...

molecular dipole:
                 x           y           z       tot (Debye)
 q only:        0.233      -0.094      -0.115
   full:        0.494      -0.201       0.085       1.373

 projected vibrational frequencies (cm-1)
eigval :       -0.00    -0.00    -0.00     0.00     0.00     0.00
eigval :      267.86   412.35   549.82   889.03   997.35  1054.85
eigval :     1137.25  1159.97  1406.30

   temp. (K)  partition function   enthalpy   heat capacity  entropy
                                   cal/mol     cal/K/mol   cal/K/mol   J/K/mol
  10.00  VIB   1.00                    0.000      0.000     -0.002
         ROT   133.                   29.809      2.981     12.695
         INT   133.                   29.809      2.981     12.692
         TR   0.290E+25               49.681      4.968     21.419
         TOT                          79.4904     7.9490    34.1114   142.7223

       T/K    H(0)-H(T)+PV         H(T)/Eh          T*S/Eh         G(T)/Eh
   ------------------------------------------------------------------------
    298.15    0.489778E-02    0.228378E-01    0.306942E-01   -0.785632E-02
    120.00    0.158843E-02    0.195285E-01    0.103872E-01    0.914127E-02
    100.00    0.129912E-02    0.192392E-01    0.839255E-02    0.108466E-01
     80.00    0.102462E-02    0.189647E-01    0.646930E-02    0.124954E-01
     60.00    0.762141E-03    0.187022E-01    0.462569E-02    0.140765E-01
     40.00    0.506785E-03    0.184469E-01    0.287685E-02    0.155700E-01
     20.00    0.253352E-03    0.181934E-01    0.126279E-02    0.169306E-01
     10.00    0.126676E-03    0.180667E-01    0.543600E-03    0.175231E-01 (used)
   ------------------------------------------------------------------------

         :::::::::::::::::::::::::::::::::::::::::::::::::::::
         ::                  THERMODYNAMIC                  ::
         :::::::::::::::::::::::::::::::::::::::::::::::::::::
         :: total free energy         -10.965206797190 Eh   ::
         ::.................................................::
         :: total energy              -10.982729939660 Eh   ::
         :: zero point energy           0.017940066928 Eh   ::
         :: G(RRHO) w/o ZPVE           -0.000416924458 Eh   ::
         :: G(RRHO) contrib.            0.017523142470 Eh   ::
         :::::::::::::::::::::::::::::::::::::::::::::::::::::

           -------------------------------------------------
          | TOTAL ENERGY              -10.982729939660 Eh   |
          | TOTAL ENTHALPY            -10.964663196716 Eh   |
          | TOTAL FREE ENERGY         -10.965206797190 Eh   |
          | GRADIENT NORM               0.000555134649 Eh/Î± |
          | HOMO-LUMO GAP               4.146953688745 eV   |
           -------------------------------------------------

 * finished run on 2020/05/12 at 11:44:19.505
