   * xtb version 6.2.2 (9d81278992624c895f80dd42a50cac0aa55982e2) compiled by '@Darwin' on 04/03/2020
          program call               : xtb --input C4_2_S_0.input C4_2_S_0.xyz --ohess --molden --namespace C4_2_S_0 output.out
          number of atoms            :                     4
          number of electrons        :                    16
          charge                     :                     0
          spin                       :                   0.0

   ID    Z sym.   atoms
    1    6 C      1-4

          :  Hamiltonian                  GFN2-xTB          :
 * total energy  :    -8.0575872 Eh     change       -0.3311129E-10 Eh
 * total energy  :    -8.1075825 Eh     change       -0.4999526E-01 Eh
 * total energy  :    -8.1097661 Eh     change       -0.2183642E-02 Eh
 * total energy  :    -8.1158407 Eh     change       -0.6074595E-02 Eh
 * total energy  :    -8.1165513 Eh     change       -0.7105828E-03 Eh
 * total energy  :    -8.1229691 Eh     change       -0.6417815E-02 Eh
 * total energy  :    -8.1216322 Eh     change        0.1336865E-02 Eh
 * total energy  :    -8.1273458 Eh     change       -0.5713525E-02 Eh
 * total energy  :    -8.1301479 Eh     change       -0.2802148E-02 Eh
 * total energy  :    -8.1315938 Eh     change       -0.1445913E-02 Eh
 * total energy  :    -8.1318338 Eh     change       -0.2399329E-03 Eh
 * total energy  :    -8.1320270 Eh     change       -0.1932404E-03 Eh
 * total energy  :    -8.1320377 Eh     change       -0.1067273E-04 Eh
 * total energy  :    -8.1320389 Eh     change       -0.1192216E-05 Eh
   *** GEOMETRY OPTIMIZATION CONVERGED AFTER 14 ITERATIONS ***

 final structure:
================
4
 xtb: 6.2.2 (9d81278992624c895f80dd42a50cac0aa55982e2)
C         1.63379029130572   -0.02880646448221   -0.02734027612418
C         0.41638137976866   -0.00864160315748    0.09657186144072
C        -1.01346597083932    0.63914644933518   -0.02905157436670
C        -1.03670570023506   -0.60169938169549   -0.04018001094984

          :  Hamiltonian                  GFN2-xTB          :
         :: gradient norm              0.000740071230 Eh/a0 ::
         :: HOMO-LUMO gap              0.094748533952 eV    ::
         :: SCC energy                -8.334436037466 Eh    ::
         :: -> dispersion             -0.001884564853 Eh    ::
         :: repulsion energy           0.202397159785 Eh    ::

    * Orbital Energies and Occupations

         #    Occupation            Energy/Eh            Energy/eV
      -------------------------------------------------------------
         1        2.0000           -0.7148431             -19.4519
         2        2.0000           -0.6493357             -17.6693
         3        2.0000           -0.5684854             -15.4693
         4        2.0000           -0.5618792             -15.2895
         5        2.0000           -0.5332170             -14.5096
         6        2.0000           -0.4562294             -12.4146
         7        2.0000           -0.4349697             -11.8361
         8        1.7241           -0.4212403             -11.4625 (HOMO)
         9        0.2759           -0.4177585             -11.3678 (LUMO)
        10                         -0.2988997              -8.1335
        11                         -0.2627911              -7.1509
        12                         -0.1906038              -5.1866
        13                         -0.0419245              -1.1408
        14                         -0.0175405              -0.4773
        15                          0.7465784              20.3154
        16                          0.9837508              26.7692
      -------------------------------------------------------------
                  HL-Gap            0.0034818 Eh            0.0947 eV

     #   Z        covCN         q      C6AA      Î±(0)
     1   6 C      0.981    -0.125    39.955    10.617
     2   6 C      2.919     0.055    26.772     8.485
     3   6 C      1.950     0.035    30.171     8.870
     4   6 C      1.950     0.035    30.180     8.872

Wiberg/Mayer (AO) data.
largest (>0.10) Wiberg bond orders for each atom
          total WBO             WBO to atom ...

molecular dipole:
                 x           y           z       tot (Debye)
 q only:       -0.480       0.009       0.012
   full:       -0.646       0.012       0.028       1.643

 projected vibrational frequencies (cm-1)
eigval :       -0.00    -0.00     0.00     0.00     0.00     0.00
eigval :     -612.20   221.59   346.10   691.50  1655.16  1997.73

   temp. (K)  partition function   enthalpy   heat capacity  entropy
                                   cal/mol     cal/K/mol   cal/K/mol   J/K/mol
  10.00  VIB   1.00                    0.000      0.000     -0.004
         ROT   91.9                   29.809      2.981     11.966
         INT   91.9                   29.809      2.981     11.961
         TR   0.198E+25               49.681      4.968     20.657
         TOT                          79.4904     7.9490    32.6186   136.4762

       T/K    H(0)-H(T)+PV         H(T)/Eh          T*S/Eh         G(T)/Eh
   ------------------------------------------------------------------------
    298.15    0.478944E-02    0.159800E-01    0.299599E-01   -0.139800E-01
    120.00    0.162237E-02    0.128129E-01    0.101511E-01    0.266180E-02
    100.00    0.132127E-02    0.125118E-01    0.818505E-02    0.432677E-02
     80.00    0.103567E-02    0.122262E-01    0.629343E-02    0.593279E-02
     60.00    0.765445E-03    0.119560E-01    0.448716E-02    0.746883E-02
     40.00    0.507059E-03    0.116976E-01    0.278213E-02    0.891547E-02
     20.00    0.253352E-03    0.114439E-01    0.121524E-02    0.102287E-01
     10.00    0.126676E-03    0.113172E-01    0.519810E-03    0.107974E-01 (used)
   ------------------------------------------------------------------------

         :::::::::::::::::::::::::::::::::::::::::::::::::::::
         ::                  THERMODYNAMIC                  ::
         :::::::::::::::::::::::::::::::::::::::::::::::::::::
         :: total free energy          -8.121241464759 Eh   ::
         ::.................................................::
         :: total energy               -8.132038873185 Eh   ::
         :: zero point energy           0.011190542822 Eh   ::
         :: G(RRHO) w/o ZPVE           -0.000393134396 Eh   ::
         :: G(RRHO) contrib.            0.010797408426 Eh   ::
         :::::::::::::::::::::::::::::::::::::::::::::::::::::

           -------------------------------------------------
          | TOTAL ENERGY               -8.132038873185 Eh   |
          | TOTAL ENTHALPY             -8.120721654347 Eh   |
          | TOTAL FREE ENERGY          -8.121241464759 Eh   |
          | GRADIENT NORM               0.000739155027 Eh/Î± |
          | HOMO-LUMO GAP               0.094744157216 eV   |
           -------------------------------------------------

 * finished run on 2020/05/12 at 14:38:40.026
