   * xtb version 6.2.2 (9d81278992624c895f80dd42a50cac0aa55982e2) compiled by '@Darwin' on 04/03/2020
          program call               : xtb --input H1C4_10_S_1.input H1C4_10_S_1.xyz --ohess --molden --namespace H1C4_10_S_1 output.out
          number of atoms            :                     5
          number of electrons        :                    17
          charge                     :                     0
          spin                       :                   0.5

   ID    Z sym.   atoms
    1    6 C      1-4
    2    1 H      5

          :  Hamiltonian                  GFN2-xTB          :
 * total energy  :    -8.5475620 Eh     change        0.1871836E-09 Eh
 * total energy  :    -8.6162289 Eh     change       -0.6866693E-01 Eh
 * total energy  :    -8.6901452 Eh     change       -0.7391630E-01 Eh
 * total energy  :    -8.7011057 Eh     change       -0.1096050E-01 Eh
 * total energy  :    -8.7123835 Eh     change       -0.1127781E-01 Eh
 * total energy  :    -8.7144459 Eh     change       -0.2062402E-02 Eh
 * total energy  :    -8.7156097 Eh     change       -0.1163765E-02 Eh
 * total energy  :    -8.7161642 Eh     change       -0.5545178E-03 Eh
 * total energy  :    -8.7164086 Eh     change       -0.2443773E-03 Eh
 * total energy  :    -8.7164743 Eh     change       -0.6568805E-04 Eh
 * total energy  :    -8.7164869 Eh     change       -0.1266979E-04 Eh
 * total energy  :    -8.7164931 Eh     change       -0.6142156E-05 Eh
 * total energy  :    -8.7164958 Eh     change       -0.2715218E-05 Eh
   *** GEOMETRY OPTIMIZATION CONVERGED AFTER 13 ITERATIONS ***

 final structure:
================
5
 xtb: 6.2.2 (9d81278992624c895f80dd42a50cac0aa55982e2)
C         0.59878754134835    0.09034681037027    0.03500554661320
C        -0.42491912371366   -0.16333946587129    0.96045092740465
C        -1.28180542368507   -0.33714117884819   -0.15206666048659
C        -0.46120204280466    0.70173583574283   -0.65158123366583
H         1.56913904885504   -0.29160200139362   -0.19180857986544

          :  Hamiltonian                  GFN2-xTB          :
         :: gradient norm              0.000798026845 Eh/a0 ::
         :: HOMO-LUMO gap              2.295299403574 eV    ::
         :: SCC energy                -8.857863175939 Eh    ::
         :: -> dispersion             -0.002016741008 Eh    ::
         :: repulsion energy           0.141367363644 Eh    ::

    * Orbital Energies and Occupations

         #    Occupation            Energy/Eh            Energy/eV
      -------------------------------------------------------------
         1        2.0000           -0.7180649             -19.5395
         2        2.0000           -0.6232153             -16.9586
         3        2.0000           -0.6035184             -16.4226
         4        2.0000           -0.5628352             -15.3155
         5        2.0000           -0.5099228             -13.8757
         6        2.0000           -0.5073149             -13.8047
         7        2.0000           -0.4463110             -12.1447
         8        2.0000           -0.4204034             -11.4398
         9        1.0000           -0.3906668             -10.6306 (HOMO)
        10                         -0.3063160              -8.3353 (LUMO)
        11                         -0.2689455              -7.3184
        12                         -0.2460970              -6.6966
        13                          0.1029167               2.8005
        14                          0.1183916               3.2216
        15                          0.1797022               4.8899
        16                          0.2701559               7.3513
        17                          0.6424000              17.4806
      -------------------------------------------------------------
                  HL-Gap            0.0843509 Eh            2.2953 eV

     #   Z        covCN         q      C6AA      Î±(0)
     1   6 C      3.505     0.060    21.048     6.798
     2   6 C      2.761    -0.039    28.948     8.811
     3   6 C      2.577    -0.061    29.547     8.887
     4   6 C      2.761    -0.039    28.948     8.811
     5   1 H      0.927     0.079     1.990     2.206

Wiberg/Mayer (AO) data.
largest (>0.10) Wiberg bond orders for each atom
          total WBO             WBO to atom ...

molecular dipole:
                 x           y           z       tot (Debye)
 q only:        0.516      -0.034      -0.030
   full:        0.961       0.050       0.005       2.446

 projected vibrational frequencies (cm-1)
eigval :       -0.00    -0.00     0.00     0.00     0.00     0.00
eigval :      523.30   625.16   744.48   749.74   914.15  1054.86
eigval :     1272.82  1461.47  3186.82

   temp. (K)  partition function   enthalpy   heat capacity  entropy
                                   cal/mol     cal/K/mol   cal/K/mol   J/K/mol
  10.00  VIB   1.00                    0.000      0.000     -0.000
         ROT   82.8                   29.809      2.981     11.757
         INT   82.8                   29.809      2.981     11.757
         TR   0.204E+25               49.681      4.968     20.719
         TOT                          79.4904     7.9490    32.4756   135.8778

       T/K    H(0)-H(T)+PV         H(T)/Eh          T*S/Eh         G(T)/Eh
   ------------------------------------------------------------------------
    298.15    0.442036E-02    0.284158E-01    0.290909E-01   -0.675054E-03
    120.00    0.152716E-02    0.255226E-01    0.999473E-02    0.155279E-01
    100.00    0.126855E-02    0.252640E-01    0.809333E-02    0.171707E-01
     80.00    0.101365E-02    0.250091E-01    0.624724E-02    0.187619E-01
     60.00    0.760066E-03    0.247555E-01    0.446665E-02    0.202889E-01
     40.00    0.506704E-03    0.245022E-01    0.277237E-02    0.217298E-01
     20.00    0.253352E-03    0.242488E-01    0.121062E-02    0.230382E-01
     10.00    0.126676E-03    0.241222E-01    0.517531E-03    0.236046E-01 (used)
   ------------------------------------------------------------------------

         :::::::::::::::::::::::::::::::::::::::::::::::::::::
         ::                  THERMODYNAMIC                  ::
         :::::::::::::::::::::::::::::::::::::::::::::::::::::
         :: total free energy          -8.692891161800 Eh   ::
         ::.................................................::
         :: total energy               -8.716495788187 Eh   ::
         :: zero point energy           0.023995481618 Eh   ::
         :: G(RRHO) w/o ZPVE           -0.000390855231 Eh   ::
         :: G(RRHO) contrib.            0.023604626387 Eh   ::
         :::::::::::::::::::::::::::::::::::::::::::::::::::::

           -------------------------------------------------
          | TOTAL ENERGY               -8.716495788187 Eh   |
          | TOTAL ENTHALPY             -8.692373630553 Eh   |
          | TOTAL FREE ENERGY          -8.692891161800 Eh   |
          | GRADIENT NORM               0.000797692079 Eh/Î± |
          | HOMO-LUMO GAP               2.295303596336 eV   |
           -------------------------------------------------

 * finished run on 2020/05/12 at 11:45:12.108
