   * xtb version 6.2.2 (9d81278992624c895f80dd42a50cac0aa55982e2) compiled by '@Darwin' on 04/03/2020
          program call               : xtb --input C1N1_0_S_1.input C1N1_0_S_1.xyz --ohess --molden --namespace C1N1_0_S_1 output.out
          number of atoms            :                     2
          number of electrons        :                     9
          charge                     :                     0
          spin                       :                   0.5

   ID    Z sym.   atoms
    1    6 C      1
    2    7 N      2

          :  Hamiltonian                  GFN2-xTB          :
 * total energy  :    -4.7727322 Eh     change       -0.2254836E-09 Eh
 * total energy  :    -4.8905387 Eh     change       -0.1178065E+00 Eh
 * total energy  :    -4.8587081 Eh     change        0.3183065E-01 Eh
 * total energy  :    -4.8955279 Eh     change       -0.3681986E-01 Eh
 * total energy  :    -4.8959250 Eh     change       -0.3970946E-03 Eh
 * total energy  :    -4.8959737 Eh     change       -0.4867358E-04 Eh
 * total energy  :    -4.8959738 Eh     change       -0.8881532E-07 Eh
   *** GEOMETRY OPTIMIZATION CONVERGED AFTER 7 ITERATIONS ***

 final structure:
================
2
 xtb: 6.2.2 (9d81278992624c895f80dd42a50cac0aa55982e2)
C         0.56792539089160    0.00000000000000    0.00000000000000
N        -0.56792539089160    0.00000000000000    0.00000000000000

          :  Hamiltonian                  GFN2-xTB          :
         :: gradient norm              0.000429371517 Eh/a0 ::
         :: HOMO-LUMO gap              4.681235891070 eV    ::
         :: SCC energy                -5.004472210475 Eh    ::
         :: -> dispersion             -0.000304267166 Eh    ::
         :: repulsion energy           0.108498422168 Eh    ::

    * Orbital Energies and Occupations

         #    Occupation            Energy/Eh            Energy/eV
      -------------------------------------------------------------
         1        2.0000           -0.6934134             -18.8687
         2        2.0000           -0.5554509             -15.1146
         3        2.0000           -0.5341729             -14.5356
         4        2.0000           -0.5341729             -14.5356
         5        1.0000           -0.4287095             -11.6658 (HOMO)
         6                         -0.2566772              -6.9845 (LUMO)
         7                         -0.2566772              -6.9845
         8                          0.8933706              24.3099
      -------------------------------------------------------------
                  HL-Gap            0.1720323 Eh            4.6812 eV

     #   Z        covCN         q      C6AA      Î±(0)
     1   6 C      0.910     0.039    34.291     9.800
     2   7 N      0.910    -0.039    22.003     6.784

Wiberg/Mayer (AO) data.
largest (>0.10) Wiberg bond orders for each atom
          total WBO             WBO to atom ...

molecular dipole:
                 x           y           z       tot (Debye)
 q only:        0.084      -0.000      -0.000
   full:        0.236      -0.000      -0.000       0.599

   temp. (K)  partition function   enthalpy   heat capacity  entropy
                                   cal/mol     cal/K/mol   cal/K/mol   J/K/mol
  10.00  VIB   1.00                    0.000      0.000     -0.000
         ROT   3.44                   19.873      1.987      4.442
         INT   3.44                   19.873      1.987      4.442
         TR   0.789E+24               49.681      4.968     18.830
         TOT                          69.5541     6.9554    23.2719    97.3698

       T/K    H(0)-H(T)+PV         H(T)/Eh          T*S/Eh         G(T)/Eh
   ------------------------------------------------------------------------
    298.15    0.330486E-02    0.870366E-02    0.222731E-01   -0.135694E-01
    120.00    0.133010E-02    0.672891E-02    0.775436E-02   -0.102546E-02
    100.00    0.110842E-02    0.650722E-02    0.625995E-02    0.247272E-03
     80.00    0.886732E-03    0.628554E-02    0.481016E-02    0.147538E-02
     60.00    0.665049E-03    0.606386E-02    0.341636E-02    0.264749E-02
     40.00    0.443366E-03    0.584217E-02    0.209787E-02    0.374430E-02
     20.00    0.221683E-03    0.562049E-02    0.895329E-03    0.472516E-02
     10.00    0.110842E-03    0.550965E-02    0.370862E-03    0.513879E-02 (used)
   ------------------------------------------------------------------------

         :::::::::::::::::::::::::::::::::::::::::::::::::::::
         ::                  THERMODYNAMIC                  ::
         :::::::::::::::::::::::::::::::::::::::::::::::::::::
         :: total free energy          -4.890835001847 Eh   ::
         ::.................................................::
         :: total energy               -4.895973788310 Eh   ::
         :: zero point energy           0.005398806951 Eh   ::
         :: G(RRHO) w/o ZPVE           -0.000260020488 Eh   ::
         :: G(RRHO) contrib.            0.005138786463 Eh   ::
         :::::::::::::::::::::::::::::::::::::::::::::::::::::

           -------------------------------------------------
          | TOTAL ENERGY               -4.895973788310 Eh   |
          | TOTAL ENTHALPY             -4.890464139845 Eh   |
          | TOTAL FREE ENERGY          -4.890835001847 Eh   |
          | GRADIENT NORM               0.000429362776 Eh/Î± |
          | HOMO-LUMO GAP               4.681235929171 eV   |
           -------------------------------------------------

 * finished run on 2020/05/12 at 11:43:54.254
