   * xtb version 6.2.2 (9d81278992624c895f80dd42a50cac0aa55982e2) compiled by '@Darwin' on 04/03/2020
          program call               : xtb --input C1N1O1_1_S_1.input C1N1O1_1_S_1.xyz --ohess --molden --namespace C1N1O1_1_S_1 output.out
          number of atoms            :                     3
          number of electrons        :                    15
          charge                     :                     0
          spin                       :                   0.5

   ID    Z sym.   atoms
    1    7 N      1
    2    8 O      2
    3    6 C      3

          :  Hamiltonian                  GFN2-xTB          :
 * total energy  :    -8.8046112 Eh     change        0.4447465E-10 Eh
 * total energy  :    -8.8717684 Eh     change       -0.6715722E-01 Eh
 * total energy  :    -8.8819152 Eh     change       -0.1014679E-01 Eh
 * total energy  :    -8.9224807 Eh     change       -0.4056550E-01 Eh
 * total energy  :    -8.9245697 Eh     change       -0.2089030E-02 Eh
 * total energy  :    -8.9257485 Eh     change       -0.1178829E-02 Eh
 * total energy  :    -8.9260440 Eh     change       -0.2954941E-03 Eh
 * total energy  :    -8.9264461 Eh     change       -0.4020733E-03 Eh
 * total energy  :    -8.9266165 Eh     change       -0.1704131E-03 Eh
 * total energy  :    -8.9266812 Eh     change       -0.6465919E-04 Eh
 * total energy  :    -8.9266869 Eh     change       -0.5735251E-05 Eh
 * total energy  :    -8.9266869 Eh     change       -0.2960852E-07 Eh
   *** GEOMETRY OPTIMIZATION CONVERGED AFTER 12 ITERATIONS ***

 final structure:
================
3
 xtb: 6.2.2 (9d81278992624c895f80dd42a50cac0aa55982e2)
N        -0.00137616055629   -0.00029562740470    0.00000000000000
O        -1.18995523973749   -0.01689003375299   -0.00000000000000
C         1.19133140029379    0.01718466115769    0.00000000000000

          :  Hamiltonian                  GFN2-xTB          :
         :: gradient norm              0.000137711363 Eh/a0 ::
         :: HOMO-LUMO gap              5.785110536280 eV    ::
         :: SCC energy                -9.021534210814 Eh    ::
         :: -> dispersion             -0.000794917135 Eh    ::
         :: repulsion energy           0.094847281458 Eh    ::

    * Orbital Energies and Occupations

         #    Occupation            Energy/Eh            Energy/eV
      -------------------------------------------------------------
         1        2.0000           -0.8049313             -21.9033
         2        2.0000           -0.7230701             -19.6757
         3        2.0000           -0.6432915             -17.5049
         4        2.0000           -0.6430677             -17.4988
         5        2.0000           -0.6430668             -17.4987
         6        2.0000           -0.4890043             -13.3065
Molecule has the following symmetry elements: (Cinf) (sigma)
It seems to be the Cinfv point group
         7        1.5000           -0.4629747             -12.5982
         8        1.5000           -0.4629747             -12.5982 (HOMO)
         9                         -0.2503758              -6.8131 (LUMO)
        10                         -0.2503758              -6.8131
        11                          0.1000851               2.7235
        12                          0.9565431              26.0289
      -------------------------------------------------------------
                  HL-Gap            0.2125989 Eh            5.7851 eV

     #   Z        covCN         q      C6AA      Î±(0)
     1   7 N      1.833     0.345    16.412     6.003
     2   8 O      0.924    -0.186    17.813     5.660
     3   6 C      0.911    -0.159    40.613    10.665

Wiberg/Mayer (AO) data.
largest (>0.10) Wiberg bond orders for each atom
          total WBO             WBO to atom ...

molecular dipole:
                 x           y           z       tot (Debye)
 q only:        0.058       0.001      -0.000
   full:       -0.281      -0.004       0.000       0.716

   temp. (K)  partition function   enthalpy   heat capacity  entropy
                                   cal/mol     cal/K/mol   cal/K/mol   J/K/mol
  10.00  VIB   1.00                    0.000      0.000     -0.004
         ROT   16.2                   19.873      1.987      7.516
         INT   16.2                   19.873      1.987      7.512
         TR   0.162E+25               49.681      4.968     20.258
         TOT                          69.5541     6.9554    27.7695   116.1876

       T/K    H(0)-H(T)+PV         H(T)/Eh          T*S/Eh         G(T)/Eh
   ------------------------------------------------------------------------
    298.15    0.426376E-02    0.132813E-01    0.260106E-01   -0.127293E-01
    120.00    0.144085E-02    0.104584E-01    0.876116E-02    0.169720E-02
    100.00    0.116667E-02    0.101842E-01    0.705129E-02    0.313288E-02
     80.00    0.909343E-03    0.992685E-02    0.541168E-02    0.451516E-02
     60.00    0.669800E-03    0.968731E-02    0.385239E-02    0.583492E-02
     40.00    0.443579E-03    0.946108E-02    0.238504E-02    0.707604E-02
     20.00    0.221683E-03    0.923919E-02    0.103874E-02    0.820045E-02
     10.00    0.110842E-03    0.912835E-02    0.442535E-03    0.868581E-02 (used)
   ------------------------------------------------------------------------

         :::::::::::::::::::::::::::::::::::::::::::::::::::::
         ::                  THERMODYNAMIC                  ::
         :::::::::::::::::::::::::::::::::::::::::::::::::::::
         :: total free energy          -8.918001120623 Eh   ::
         ::.................................................::
         :: total energy               -8.926686931850 Eh   ::
         :: zero point energy           0.009017505048 Eh   ::
         :: G(RRHO) w/o ZPVE           -0.000331693821 Eh   ::
         :: G(RRHO) contrib.            0.008685811227 Eh   ::
         :::::::::::::::::::::::::::::::::::::::::::::::::::::

           -------------------------------------------------
          | TOTAL ENERGY               -8.926686931850 Eh   |
          | TOTAL ENTHALPY             -8.917558585288 Eh   |
          | TOTAL FREE ENERGY          -8.918001120623 Eh   |
          | GRADIENT NORM               0.000137494568 Eh/Î± |
          | HOMO-LUMO GAP               5.785109359380 eV   |
           -------------------------------------------------

 * finished run on 2020/05/12 at 11:44:41.114
