   * xtb version 6.2.2 (9d81278992624c895f80dd42a50cac0aa55982e2) compiled by '@Darwin' on 04/03/2020
          program call               : xtb --input C4N1_14_S_1.input C4N1_14_S_1.xyz --ohess --molden --namespace C4N1_14_S_1 output.out
          number of atoms            :                     5
          number of electrons        :                    21
          charge                     :                     0
          spin                       :                   0.5

   ID    Z sym.   atoms
    1    6 C      1-3, 5
    2    7 N      4

          :  Hamiltonian                  GFN2-xTB          :
 * total energy  :   -10.8892178 Eh     change       -0.3435865E-08 Eh
 * total energy  :   -10.9770396 Eh     change       -0.8782187E-01 Eh
 * total energy  :   -11.0202786 Eh     change       -0.4323896E-01 Eh
 * total energy  :   -11.0503371 Eh     change       -0.3005853E-01 Eh
 * total energy  :   -11.0589817 Eh     change       -0.8644607E-02 Eh
 * total energy  :   -11.0661315 Eh     change       -0.7149799E-02 Eh
 * total energy  :   -11.0681004 Eh     change       -0.1968870E-02 Eh
 * total energy  :   -11.0700436 Eh     change       -0.1943203E-02 Eh
 * total energy  :   -11.0704414 Eh     change       -0.3977855E-03 Eh
 * total energy  :   -11.0706364 Eh     change       -0.1950469E-03 Eh
 * total energy  :   -11.0708575 Eh     change       -0.2210945E-03 Eh
 * total energy  :   -11.0709351 Eh     change       -0.7755958E-04 Eh
 * total energy  :   -11.0709724 Eh     change       -0.3727324E-04 Eh
 * total energy  :   -11.0709566 Eh     change        0.1578124E-04 Eh
 * total energy  :   -11.0710044 Eh     change       -0.4786112E-04 Eh
 * total energy  :   -11.0710127 Eh     change       -0.8259690E-05 Eh
 * total energy  :   -11.0710192 Eh     change       -0.6535135E-05 Eh
 * total energy  :   -11.0710218 Eh     change       -0.2548723E-05 Eh
   *** GEOMETRY OPTIMIZATION CONVERGED AFTER 18 ITERATIONS ***

 final structure:
================
5
 xtb: 6.2.2 (9d81278992624c895f80dd42a50cac0aa55982e2)
C        -1.95502335981401   -0.51218764415623   -0.07974033709805
C        -0.79187307444277    0.00231548203904   -0.00975222191448
C         0.79176015988161   -0.01054209910324    0.01017366243465
N         0.00708399687994    1.06444870478140    0.10931681634254
C         1.94805227749523   -0.54403444356099   -0.02999791976466

          :  Hamiltonian                  GFN2-xTB          :
         :: gradient norm              0.000880451626 Eh/a0 ::
         :: HOMO-LUMO gap              0.315258944214 eV    ::
         :: SCC energy               -11.274260654549 Eh    ::
         :: -> dispersion             -0.002908776547 Eh    ::
         :: repulsion energy           0.203238848102 Eh    ::

    * Orbital Energies and Occupations

         #    Occupation            Energy/Eh            Energy/eV
      -------------------------------------------------------------
         1        2.0000           -0.7550652             -20.5464
         2        2.0000           -0.7009071             -19.0727
         3        2.0000           -0.6836128             -18.6021
         4        2.0000           -0.6034217             -16.4199
         5        2.0000           -0.5961971             -16.2233
         6        2.0000           -0.5922057             -16.1147
         7        2.0000           -0.4879605             -13.2781
         8        2.0000           -0.4792264             -13.0404
         9        2.0000           -0.4770605             -12.9815
        10        2.0000           -0.4689878             -12.7618
        11        0.9978           -0.4272373             -11.6257 (HOMO)
        12        0.0022           -0.4156518             -11.3105 (LUMO)
        13                         -0.3204746              -8.7206
        14                         -0.2419743              -6.5845
        15                         -0.2221091              -6.0439
        16                         -0.0853892              -2.3236
        17                          0.1072635               2.9188
        18                          0.1907662               5.1910
        19                          0.7778129              21.1654
        20                          0.8539888              23.2382
      -------------------------------------------------------------
                  HL-Gap            0.0115856 Eh            0.3153 eV

     #   Z        covCN         q      C6AA      Î±(0)
     1   6 C      0.982    -0.118    39.692    10.582
     2   6 C      2.858     0.158    24.578     8.126
     3   6 C      2.858     0.158    24.579     8.126
     4   7 N      1.822    -0.081    23.559     7.192
     5   6 C      0.982    -0.118    39.692    10.582

Wiberg/Mayer (AO) data.
largest (>0.10) Wiberg bond orders for each atom
          total WBO             WBO to atom ...

molecular dipole:
                 x           y           z       tot (Debye)
 q only:        0.000       0.069       0.008
   full:        0.000       0.039       0.006       0.099

 projected vibrational frequencies (cm-1)
eigval :       -0.00    -0.00    -0.00     0.00     0.00     0.00
eigval :      175.09   268.35   298.21   330.52   543.52   906.00
eigval :     1187.47  1588.62  1863.02

   temp. (K)  partition function   enthalpy   heat capacity  entropy
                                   cal/mol     cal/K/mol   cal/K/mol   J/K/mol
  10.00  VIB   1.00                    0.000      0.000     -0.011
         ROT   131.                   29.809      2.981     12.674
         INT   131.                   29.809      2.981     12.663
         TR   0.290E+25               49.681      4.968     21.419
         TOT                          79.4904     7.9490    34.0823   142.6004

       T/K    H(0)-H(T)+PV         H(T)/Eh          T*S/Eh         G(T)/Eh
   ------------------------------------------------------------------------
    298.15    0.591342E-02    0.222269E-01    0.325430E-01   -0.103161E-01
    120.00    0.175462E-02    0.180681E-01    0.106153E-01    0.745277E-02
    100.00    0.139586E-02    0.177094E-01    0.851961E-02    0.918975E-02
     80.00    0.106954E-02    0.173830E-01    0.652501E-02    0.108580E-01
     60.00    0.775800E-03    0.170893E-01    0.464084E-02    0.124484E-01
     40.00    0.508294E-03    0.168218E-01    0.287740E-02    0.139444E-01
     20.00    0.253355E-03    0.165668E-01    0.126203E-02    0.153048E-01
     10.00    0.126676E-03    0.164402E-01    0.543136E-03    0.158970E-01 (used)
   ------------------------------------------------------------------------

         :::::::::::::::::::::::::::::::::::::::::::::::::::::
         ::                  THERMODYNAMIC                  ::
         :::::::::::::::::::::::::::::::::::::::::::::::::::::
         :: total free energy         -11.055124743144 Eh   ::
         ::.................................................::
         :: total energy              -11.071021777938 Eh   ::
         :: zero point energy           0.016313494907 Eh   ::
         :: G(RRHO) w/o ZPVE           -0.000416460114 Eh   ::
         :: G(RRHO) contrib.            0.015897034794 Eh   ::
         :::::::::::::::::::::::::::::::::::::::::::::::::::::

           -------------------------------------------------
          | TOTAL ENERGY              -11.071021777938 Eh   |
          | TOTAL ENTHALPY            -11.054581607014 Eh   |
          | TOTAL FREE ENERGY         -11.055124743144 Eh   |
          | GRADIENT NORM               0.000881317158 Eh/Î± |
          | HOMO-LUMO GAP               0.315259720104 eV   |
           -------------------------------------------------

 * finished run on 2020/05/12 at 11:44:04.044
