   * xtb version 6.2.2 (9d81278992624c895f80dd42a50cac0aa55982e2) compiled by '@Darwin' on 04/03/2020
          program call               : xtb --input C4N1_33_S_1.input C4N1_33_S_1.xyz --ohess --molden --namespace C4N1_33_S_1 output.out
          number of atoms            :                     5
          number of electrons        :                    21
          charge                     :                     0
          spin                       :                   0.5

   ID    Z sym.   atoms
    1    7 N      1
    2    6 C      2-5

          :  Hamiltonian                  GFN2-xTB          :
 * total energy  :   -10.9565869 Eh     change       -0.1106876E-08 Eh
 * total energy  :   -11.0306642 Eh     change       -0.7407728E-01 Eh
 * total energy  :   -11.0336098 Eh     change       -0.2945544E-02 Eh
 * total energy  :   -11.0655892 Eh     change       -0.3197940E-01 Eh
 * total energy  :   -11.0703416 Eh     change       -0.4752468E-02 Eh
 * total energy  :   -11.0732499 Eh     change       -0.2908281E-02 Eh
 * total energy  :   -11.0749679 Eh     change       -0.1718017E-02 Eh
 * total energy  :   -11.0758171 Eh     change       -0.8491818E-03 Eh
 * total energy  :   -11.0760817 Eh     change       -0.2645383E-03 Eh
 * total energy  :   -11.0761992 Eh     change       -0.1175477E-03 Eh
 * total energy  :   -11.0762040 Eh     change       -0.4783411E-05 Eh
 * total energy  :   -11.0762052 Eh     change       -0.1237197E-05 Eh
   *** GEOMETRY OPTIMIZATION CONVERGED AFTER 12 ITERATIONS ***

 final structure:
================
5
 xtb: 6.2.2 (9d81278992624c895f80dd42a50cac0aa55982e2)
N        -1.55091050255805   -0.08179704771160   -0.07281995105598
C        -0.57302476097117    0.79051564048682    0.14864709708032
C         0.69398247377764    0.03740972493004    0.05270803088448
C        -0.49054618690202   -0.83035249002431    0.21271372051504
C         1.92049897665360    0.08422417231905   -0.34124889742387

          :  Hamiltonian                  GFN2-xTB          :
         :: gradient norm              0.000858733334 Eh/a0 ::
         :: HOMO-LUMO gap              1.218904558144 eV    ::
         :: SCC energy               -11.240747261394 Eh    ::
         :: -> dispersion             -0.002847779849 Eh    ::
         :: repulsion energy           0.164542038777 Eh    ::

    * Orbital Energies and Occupations

         #    Occupation            Energy/Eh            Energy/eV
      -------------------------------------------------------------
         1        2.0000           -0.7713950             -20.9907
         2        2.0000           -0.6930149             -18.8579
         3        2.0000           -0.6453825             -17.5618
         4        2.0000           -0.6428998             -17.4942
         5        2.0000           -0.5967237             -16.2377
         6        2.0000           -0.5740579             -15.6209
         7        2.0000           -0.5023297             -13.6691
         8        2.0000           -0.4850440             -13.1987
         9        2.0000           -0.4729133             -12.8686
        10        2.0000           -0.4495517             -12.2329
        11        1.0000           -0.4204457             -11.4409 (HOMO)
        12                         -0.3756521             -10.2220 (LUMO)
        13                         -0.3432088              -9.3392
        14                         -0.2797657              -7.6128
        15                         -0.2091152              -5.6903
        16                          0.0796651               2.1678
        17                          0.1327837               3.6132
        18                          0.1845668               5.0223
        19                          0.2767335               7.5303
        20                          0.7515278              20.4501
      -------------------------------------------------------------
                  HL-Gap            0.0447936 Eh            1.2189 eV

     #   Z        covCN         q      C6AA      Î±(0)
     1   7 N      1.864    -0.097    23.893     7.245
     2   6 C      2.847     0.068    26.474     8.433
Molecule has the following symmetry elements: (sigma)
It seems to be the Cs point group
     3   6 C      2.981     0.087    26.061     8.374
     4   6 C      2.847     0.068    26.474     8.433
     5   6 C      0.981    -0.126    39.973    10.620

Wiberg/Mayer (AO) data.
largest (>0.10) Wiberg bond orders for each atom
          total WBO             WBO to atom ...

molecular dipole:
                 x           y           z       tot (Debye)
 q only:       -0.195      -0.004       0.149
   full:       -0.390      -0.008       0.301       1.253

 projected vibrational frequencies (cm-1)
eigval :       -0.00    -0.00    -0.00     0.00     0.00     0.00
eigval :      188.52   206.92   453.92   591.04   670.15   803.70
eigval :     1051.17  1540.10  1757.84

   temp. (K)  partition function   enthalpy   heat capacity  entropy
                                   cal/mol     cal/K/mol   cal/K/mol   J/K/mol
  10.00  VIB   1.00                    0.000      0.000     -0.010
         ROT   195.                   29.809      2.981     13.462
         INT   195.                   29.809      2.981     13.452
         TR   0.290E+25               49.681      4.968     21.419
         TOT                          79.4904     7.9490    34.8714   145.9019

       T/K    H(0)-H(T)+PV         H(T)/Eh          T*S/Eh         G(T)/Eh
   ------------------------------------------------------------------------
    298.15    0.556988E-02    0.221170E-01    0.323381E-01   -0.102211E-01
    120.00    0.171874E-02    0.182659E-01    0.107235E-01    0.754239E-02
    100.00    0.138224E-02    0.179294E-01    0.862988E-02    0.929950E-02
     80.00    0.106742E-02    0.176145E-01    0.662332E-02    0.109912E-01
     60.00    0.776195E-03    0.173233E-01    0.471662E-02    0.126067E-01
     40.00    0.508233E-03    0.170554E-01    0.292756E-02    0.141278E-01
     20.00    0.253353E-03    0.168005E-01    0.128717E-02    0.155133E-01
     10.00    0.126676E-03    0.166738E-01    0.555711E-03    0.161181E-01 (used)
   ------------------------------------------------------------------------

         :::::::::::::::::::::::::::::::::::::::::::::::::::::
         ::                  THERMODYNAMIC                  ::
         :::::::::::::::::::::::::::::::::::::::::::::::::::::
         :: total free energy         -11.060087136723 Eh   ::
         ::.................................................::
         :: total energy              -11.076205232961 Eh   ::
         :: zero point energy           0.016547131367 Eh   ::
         :: G(RRHO) w/o ZPVE           -0.000429035128 Eh   ::
         :: G(RRHO) contrib.            0.016118096238 Eh   ::
         :::::::::::::::::::::::::::::::::::::::::::::::::::::

           -------------------------------------------------
          | TOTAL ENERGY              -11.076205232961 Eh   |
          | TOTAL ENTHALPY            -11.059531425579 Eh   |
          | TOTAL FREE ENERGY         -11.060087136723 Eh   |
          | GRADIENT NORM               0.000861822181 Eh/Î± |
          | HOMO-LUMO GAP               1.218894996440 eV   |
           -------------------------------------------------

 * finished run on 2020/05/12 at 11:44:12.898
