   * xtb version 6.2.2 (9d81278992624c895f80dd42a50cac0aa55982e2) compiled by '@Darwin' on 04/03/2020
          program call               : xtb --input C4N1_47_S_3.input C4N1_47_S_3.xyz --ohess --molden --namespace C4N1_47_S_3 output.out
          number of atoms            :                     5
          number of electrons        :                    21
          charge                     :                     0
          spin                       :                   1.5

   ID    Z sym.   atoms
    1    7 N      1
    2    6 C      2-5

          :  Hamiltonian                  GFN2-xTB          :
 * total energy  :   -10.9574088 Eh     change        0.1100187E-09 Eh
 * total energy  :   -10.9733924 Eh     change       -0.1598357E-01 Eh
 * total energy  :   -10.9770298 Eh     change       -0.3637470E-02 Eh
 * total energy  :   -10.9775194 Eh     change       -0.4895445E-03 Eh
 * total energy  :   -10.9775818 Eh     change       -0.6243004E-04 Eh
 * total energy  :   -10.9776063 Eh     change       -0.2452165E-04 Eh
 * total energy  :   -10.9776075 Eh     change       -0.1133305E-05 Eh
   *** GEOMETRY OPTIMIZATION CONVERGED AFTER 7 ITERATIONS ***

 final structure:
================
5
 xtb: 6.2.2 (9d81278992624c895f80dd42a50cac0aa55982e2)
N         0.18647193616665   -0.97547112241342    0.05165471678014
C        -0.73949749426769   -0.07831086073572   -0.70687790750564
C         0.15749542190733    1.03043738614141   -0.05553464228299
C        -0.73559375888361   -0.00225750898957    0.71524989795369
C         1.13112389507731    0.02560310599731   -0.00449106494520

          :  Hamiltonian                  GFN2-xTB          :
         :: gradient norm              0.000320509944 Eh/a0 ::
         :: HOMO-LUMO gap              2.216071737408 eV    ::
         :: SCC energy               -11.093439783868 Eh    ::
         :: -> dispersion             -0.002662257580 Eh    ::
         :: repulsion energy           0.115832312261 Eh    ::

    * Orbital Energies and Occupations

         #    Occupation            Energy/Eh            Energy/eV
      -------------------------------------------------------------
         1        2.0000           -0.7764504             -21.1283
         2        2.0000           -0.6768459             -18.4179
         3        2.0000           -0.6556150             -17.8402
         4        2.0000           -0.6253181             -17.0158
         5        2.0000           -0.5767487             -15.6941
         6        2.0000           -0.5245346             -14.2733
         7        2.0000           -0.5080669             -13.8252
         8        2.0000           -0.5009661             -13.6320
         9        2.0000           -0.4721573             -12.8481
        10        1.0000           -0.4486608             -12.2087
        11        1.0000           -0.4058078             -11.0426
        12        1.0000           -0.3964313             -10.7874 (HOMO)
        13                         -0.3149921              -8.5714 (LUMO)
        14                         -0.1535074              -4.1771
        15                         -0.1337782              -3.6403
        16                         -0.0563223              -1.5326
        17                         -0.0169637              -0.4616
        18                          0.1167184               3.1761
        19                          0.2676058               7.2819
        20                          0.3956327              10.7657
      -------------------------------------------------------------
                  HL-Gap            0.0814391 Eh            2.2161 eV

     #   Z        covCN         q      C6AA      Î±(0)
     1   7 N      3.052    -0.080    22.779     7.089
     2   6 C      3.343     0.034    24.698     7.852
     3   6 C      3.255    -0.018    27.335     8.456
     4   6 C      3.343     0.034    24.699     7.852
     5   6 C      2.867     0.029    27.342     8.571

Wiberg/Mayer (AO) data.
largest (>0.10) Wiberg bond orders for each atom
          total WBO             WBO to atom ...

molecular dipole:
                 x           y           z       tot (Debye)
 q only:       -0.065       0.108      -0.006
   full:        0.092       0.029      -0.002       0.247

 projected vibrational frequencies (cm-1)
eigval :       -0.00    -0.00    -0.00     0.00     0.00     0.00
eigval :     -251.96  -213.65   638.01   714.58   894.67   923.02
eigval :     1190.02  1350.99  1419.43

   temp. (K)  partition function   enthalpy   heat capacity  entropy
                                   cal/mol     cal/K/mol   cal/K/mol   J/K/mol
  10.00  VIB   1.00                    0.000      0.000     -0.000
         ROT   139.                   29.809      2.981     12.788
         INT   139.                   29.809      2.981     12.787
         TR   0.290E+25               49.681      4.968     21.419
         TOT                          79.4904     7.9490    34.2068   143.1213

       T/K    H(0)-H(T)+PV         H(T)/Eh          T*S/Eh         G(T)/Eh
   ------------------------------------------------------------------------
    298.15    0.416197E-02    0.204069E-01    0.295607E-01   -0.915373E-02
    120.00    0.152228E-02    0.177672E-01    0.103201E-01    0.744715E-02
    100.00    0.126719E-02    0.175122E-01    0.836764E-02    0.914452E-02
     80.00    0.101345E-02    0.172584E-01    0.646771E-02    0.107907E-01
     60.00    0.760057E-03    0.170050E-01    0.463216E-02    0.123729E-01
     40.00    0.506704E-03    0.167517E-01    0.288272E-02    0.138690E-01
     20.00    0.253352E-03    0.164983E-01    0.126580E-02    0.152325E-01
     10.00    0.126676E-03    0.163716E-01    0.545120E-03    0.158265E-01 (used)
   ------------------------------------------------------------------------

         :::::::::::::::::::::::::::::::::::::::::::::::::::::
         ::                  THERMODYNAMIC                  ::
         :::::::::::::::::::::::::::::::::::::::::::::::::::::
         :: total free energy         -10.961780925642 Eh   ::
         ::.................................................::
         :: total energy              -10.977607451466 Eh   ::
         :: zero point energy           0.016244970215 Eh   ::
         :: G(RRHO) w/o ZPVE           -0.000418444390 Eh   ::
         :: G(RRHO) contrib.            0.015826525825 Eh   ::
         :::::::::::::::::::::::::::::::::::::::::::::::::::::

           -------------------------------------------------
          | TOTAL ENERGY              -10.977607451466 Eh   |
          | TOTAL ENTHALPY            -10.961235805236 Eh   |
          | TOTAL FREE ENERGY         -10.961780925642 Eh   |
          | GRADIENT NORM               0.000320796261 Eh/Î± |
          | HOMO-LUMO GAP               2.216071992986 eV   |
           -------------------------------------------------

 * finished run on 2020/05/12 at 11:44:19.884
