   * xtb version 6.2.2 (9d81278992624c895f80dd42a50cac0aa55982e2) compiled by '@Darwin' on 04/03/2020
          program call               : xtb --input H1C3N1_16_S_2.input H1C3N1_16_S_2.xyz --ohess --molden --namespace H1C3N1_16_S_2 output.out
          number of atoms            :                     5
          number of electrons        :                    18
          charge                     :                     0
          spin                       :                   1.0

   ID    Z sym.   atoms
    1    6 C      1-3
    2    7 N      4
    3    1 H      5

          :  Hamiltonian                  GFN2-xTB          :
 * total energy  :    -9.4036653 Eh     change       -0.5643539E-09 Eh
 * total energy  :    -9.4355455 Eh     change       -0.3188023E-01 Eh
 * total energy  :    -9.4450772 Eh     change       -0.9531652E-02 Eh
 * total energy  :    -9.4568815 Eh     change       -0.1180431E-01 Eh
 * total energy  :    -9.4608744 Eh     change       -0.3992871E-02 Eh
 * total energy  :    -9.4582000 Eh     change        0.2674423E-02 Eh
 * total energy  :    -9.4683338 Eh     change       -0.1013383E-01 Eh
 * total energy  :    -9.4696841 Eh     change       -0.1350358E-02 Eh
 * total energy  :    -9.4705799 Eh     change       -0.8957928E-03 Eh
 * total energy  :    -9.4717558 Eh     change       -0.1175880E-02 Eh
 * total energy  :    -9.4740757 Eh     change       -0.1764508E-03 Eh
 * total energy  :    -9.4742039 Eh     change       -0.1282627E-03 Eh
 * total energy  :    -9.4743502 Eh     change       -0.1462400E-03 Eh
 * total energy  :    -9.4744516 Eh     change       -0.1014218E-03 Eh
 * total energy  :    -9.4745270 Eh     change       -0.7538624E-04 Eh
 * total energy  :    -9.4745565 Eh     change       -0.2957472E-04 Eh
 * total energy  :    -9.4745735 Eh     change       -0.1700911E-04 Eh
 * total energy  :    -9.4745811 Eh     change       -0.7574324E-05 Eh
 * total energy  :    -9.4745842 Eh     change       -0.3053243E-05 Eh
   *** GEOMETRY OPTIMIZATION CONVERGED AFTER 25 ITERATIONS ***

 final structure:
================
5
 xtb: 6.2.2 (9d81278992624c895f80dd42a50cac0aa55982e2)
C         1.77028361772801   -0.50485329570668   -0.04730303043385
C         0.68564458214611    0.12019553084387    0.24329132854162
C        -0.30376002245989    1.16389662837950   -0.12695811697063
N        -0.72516617860451   -0.06552843577435    0.12992212594976
H        -1.42700199880972   -0.71370942774234   -0.19895330708690

          :  Hamiltonian                  GFN2-xTB          :
         :: gradient norm              0.000443084193 Eh/a0 ::
         :: HOMO-LUMO gap              0.641798772976 eV    ::
         :: SCC energy                -9.618826064691 Eh    ::
         :: -> dispersion             -0.002184415918 Eh    ::
         :: repulsion energy           0.144241828124 Eh    ::

    * Orbital Energies and Occupations

         #    Occupation            Energy/Eh            Energy/eV
      -------------------------------------------------------------
         1        2.0000           -0.7192616             -19.5721
         2        2.0000           -0.6465458             -17.5934
         3        2.0000           -0.6275800             -17.0773
         4        2.0000           -0.5783866             -15.7387
         5        2.0000           -0.5486401             -14.9293
         6        2.0000           -0.5045327             -13.7290
         7        2.0000           -0.4411945             -12.0055
         8        2.0000           -0.4311462             -11.7321
         9        1.0000           -0.4052412             -11.0272
        10        1.0000           -0.3275640              -8.9135 (HOMO)
        11        0.0000           -0.3039779              -8.2717 (LUMO)
        12                         -0.2166846              -5.8963
        13                         -0.0403555              -1.0981
        14                         -0.0122862              -0.3343
        15                          0.1755249               4.7763
        16                          0.4149614              11.2917
        17                          0.7595332              20.6680
      -------------------------------------------------------------
                  HL-Gap            0.0235861 Eh            0.6418 eV

     #   Z        covCN         q      C6AA      Î±(0)
     1   6 C      0.982    -0.155    41.000    10.755
     2   6 C      2.867     0.125    25.249     8.237
     3   6 C      1.888    -0.101    33.928     9.408
     4   7 N      2.679    -0.038    21.990     6.965
     5   1 H      0.860     0.170     1.275     1.769

Wiberg/Mayer (AO) data.
largest (>0.10) Wiberg bond orders for each atom
          total WBO             WBO to atom ...

molecular dipole:
                 x           y           z       tot (Debye)
 q only:       -0.703      -0.271       0.023
   full:       -1.044      -0.724       0.123       3.245

 projected vibrational frequencies (cm-1)
eigval :       -0.00    -0.00     0.00     0.00     0.00     0.00
eigval :      321.95   378.11   477.11   578.49   845.47   937.86
eigval :     1298.79  1576.58  3329.73

   temp. (K)  partition function   enthalpy   heat capacity  entropy
                                   cal/mol     cal/K/mol   cal/K/mol   J/K/mol
  10.00  VIB   1.00                    0.000      0.000     -0.002
         ROT   111.                   29.809      2.981     12.334
         INT   111.                   29.809      2.981     12.332
         TR   0.217E+25               49.681      4.968     20.838
         TOT                          79.4904     7.9490    33.1697   138.7821

       T/K    H(0)-H(T)+PV         H(T)/Eh          T*S/Eh         G(T)/Eh
   ------------------------------------------------------------------------
    298.15    0.504320E-02    0.272419E-01    0.304244E-01   -0.318250E-02
    120.00    0.158031E-02    0.237790E-01    0.101938E-01    0.135852E-01
    100.00    0.129163E-02    0.234903E-01    0.823200E-02    0.152583E-01
     80.00    0.102032E-02    0.232190E-01    0.634373E-02    0.168752E-01
     60.00    0.760932E-03    0.229596E-01    0.453415E-02    0.184254E-01
     40.00    0.506720E-03    0.227054E-01    0.281671E-02    0.198887E-01
     20.00    0.253352E-03    0.224520E-01    0.123277E-02    0.212192E-01
     10.00    0.126676E-03    0.223253E-01    0.528593E-03    0.217967E-01 (used)
   ------------------------------------------------------------------------

         :::::::::::::::::::::::::::::::::::::::::::::::::::::
         ::                  THERMODYNAMIC                  ::
         :::::::::::::::::::::::::::::::::::::::::::::::::::::
         :: total free energy          -9.452787429431 Eh   ::
         ::.................................................::
         :: total energy               -9.474584172787 Eh   ::
         :: zero point energy           0.022198660570 Eh   ::
         :: G(RRHO) w/o ZPVE           -0.000401917214 Eh   ::
         :: G(RRHO) contrib.            0.021796743356 Eh   ::
         :::::::::::::::::::::::::::::::::::::::::::::::::::::

           -------------------------------------------------
          | TOTAL ENERGY               -9.474584172787 Eh   |
          | TOTAL ENTHALPY             -9.452258836202 Eh   |
          | TOTAL FREE ENERGY          -9.452787429431 Eh   |
          | GRADIENT NORM               0.000443060477 Eh/Î± |
          | HOMO-LUMO GAP               0.641811432568 eV   |
           -------------------------------------------------

 * finished run on 2020/05/12 at 11:44:56.774
