   * xtb version 6.2.2 (9d81278992624c895f80dd42a50cac0aa55982e2) compiled by '@Darwin' on 04/03/2020
          program call               : xtb --input H1C3_0_S_1.input H1C3_0_S_1.xyz --ohess --molden --namespace H1C3_0_S_1 output.out
          number of atoms            :                     4
          number of electrons        :                    13
          charge                     :                     0
          spin                       :                   0.5

   ID    Z sym.   atoms
    1    6 C      1-3
    2    1 H      4

          :  Hamiltonian                  GFN2-xTB          :
 * total energy  :    -6.5076089 Eh     change        0.1349500E-08 Eh
 * total energy  :    -6.5503899 Eh     change       -0.4278103E-01 Eh
 * total energy  :    -6.5571353 Eh     change       -0.6745365E-02 Eh
 * total energy  :    -6.5593651 Eh     change       -0.2229801E-02 Eh
 * total energy  :    -6.5608035 Eh     change       -0.1438370E-02 Eh
 * total energy  :    -6.5610898 Eh     change       -0.2863292E-03 Eh
 * total energy  :    -6.5611905 Eh     change       -0.1006717E-03 Eh
 * total energy  :    -6.5612157 Eh     change       -0.2526808E-04 Eh
 * total energy  :    -6.5612240 Eh     change       -0.8241344E-05 Eh
 * total energy  :    -6.5612250 Eh     change       -0.1054435E-05 Eh
   *** GEOMETRY OPTIMIZATION CONVERGED AFTER 10 ITERATIONS ***

 final structure:
================
4
 xtb: 6.2.2 (9d81278992624c895f80dd42a50cac0aa55982e2)
C        -0.00084635166260    0.01469089247113   -0.00046961828586
C        -1.17581755991890   -0.62656098001375    0.01921565808967
C         1.24105716269030   -0.48491903735596    0.01336257556148
H        -0.06439425110880    1.09678912489858   -0.03210861536529

          :  Hamiltonian                  GFN2-xTB          :
         :: gradient norm              0.000094631896 Eh/a0 ::
         :: HOMO-LUMO gap              0.309496257224 eV    ::
         :: SCC energy                -6.672126165740 Eh    ::
         :: -> dispersion             -0.001315105189 Eh    ::
         :: repulsion energy           0.110901115325 Eh    ::

    * Orbital Energies and Occupations

         #    Occupation            Energy/Eh            Energy/eV
      -------------------------------------------------------------
         1        2.0000           -0.6844580             -18.6251
         2        2.0000           -0.6377314             -17.3536
         3        2.0000           -0.5740501             -15.6207
         4        2.0000           -0.4889124             -13.3040
         5        2.0000           -0.4793158             -13.0428
         6        2.0000           -0.4384158             -11.9299
         7        0.9972           -0.3664296              -9.9711 (HOMO)
         8        0.0022           -0.3550559              -9.6616 (LUMO)
         9        0.0006           -0.3537812              -9.6269
        10                         -0.2013837              -5.4799
        11                          0.1833591               4.9895
        12                          0.3813721              10.3777
        13                          0.5757732              15.6676
      -------------------------------------------------------------
                  HL-Gap            0.0113738 Eh            0.3095 eV

     #   Z        covCN         q      C6AA      Î±(0)
     1   6 C      2.886     0.052    26.840     8.494
     2   6 C      0.993    -0.122    39.936    10.621
     3   6 C      0.993    -0.122    39.936    10.621
     4   1 H      0.925     0.193     1.136     1.667

Wiberg/Mayer (AO) data.
largest (>0.10) Wiberg bond orders for each atom
          total WBO             WBO to atom ...

molecular dipole:
                 x           y           z       tot (Debye)
 q only:       -0.039       0.658      -0.019
   full:       -0.062       1.055      -0.031       2.686

 projected vibrational frequencies (cm-1)
eigval :       -0.00    -0.00     0.00     0.00     0.00     0.00
eigval :      342.15   414.09   482.68  1297.33  1403.15  2993.87

   temp. (K)  partition function   enthalpy   heat capacity  entropy
                                   cal/mol     cal/K/mol   cal/K/mol   J/K/mol
  10.00  VIB   1.00                    0.000      0.000     -0.001
         ROT   19.1                   29.809      2.981      8.844
         INT   19.1                   29.809      2.981      8.843
         TR   0.134E+25               49.681      4.968     19.882
         TOT                          79.4904     7.9490    28.7248   120.1845

       T/K    H(0)-H(T)+PV         H(T)/Eh          T*S/Eh         G(T)/Eh
   ------------------------------------------------------------------------
    298.15    0.469872E-02    0.204939E-01    0.278276E-01   -0.733373E-02
    120.00    0.156635E-02    0.173615E-01    0.932604E-02    0.803548E-02
    100.00    0.128520E-02    0.170804E-01    0.751568E-02    0.956469E-02
     80.00    0.101820E-02    0.168134E-01    0.577448E-02    0.110389E-01
     60.00    0.760595E-03    0.165558E-01    0.410871E-02    0.124471E-01
     40.00    0.506712E-03    0.163019E-01    0.253334E-02    0.137685E-01
     20.00    0.253352E-03    0.160485E-01    0.109109E-02    0.149574E-01
     10.00    0.126676E-03    0.159218E-01    0.457759E-03    0.154641E-01 (used)
   ------------------------------------------------------------------------

         :::::::::::::::::::::::::::::::::::::::::::::::::::::
         ::                  THERMODYNAMIC                  ::
         :::::::::::::::::::::::::::::::::::::::::::::::::::::
         :: total free energy          -6.545760949629 Eh   ::
         ::.................................................::
         :: total energy               -6.561225035963 Eh   ::
         :: zero point energy           0.015795169076 Eh   ::
         :: G(RRHO) w/o ZPVE           -0.000331082742 Eh   ::
         :: G(RRHO) contrib.            0.015464086334 Eh   ::
         :::::::::::::::::::::::::::::::::::::::::::::::::::::

           -------------------------------------------------
          | TOTAL ENERGY               -6.561225035963 Eh   |
          | TOTAL ENTHALPY             -6.545303190871 Eh   |
          | TOTAL FREE ENERGY          -6.545760949629 Eh   |
          | GRADIENT NORM               0.000094611780 Eh/Î± |
          | HOMO-LUMO GAP               0.309496243569 eV   |
           -------------------------------------------------

 * finished run on 2020/05/12 at 11:43:51.186
