   * xtb version 6.2.2 (9d81278992624c895f80dd42a50cac0aa55982e2) compiled by '@Darwin' on 04/03/2020
          program call               : xtb --input H1C4_2_S_1.input H1C4_2_S_1.xyz --ohess --molden --namespace H1C4_2_S_1 output.out
          number of atoms            :                     5
          number of electrons        :                    17
          charge                     :                     0
          spin                       :                   0.5

   ID    Z sym.   atoms
    1    6 C      1-4
    2    1 H      5

          :  Hamiltonian                  GFN2-xTB          :
 * total energy  :    -8.5673425 Eh     change       -0.1839666E-09 Eh
 * total energy  :    -8.6670775 Eh     change       -0.9973506E-01 Eh
 * total energy  :    -8.7195176 Eh     change       -0.5244003E-01 Eh
 * total energy  :    -8.7541825 Eh     change       -0.3466492E-01 Eh
 * total energy  :    -8.7659424 Eh     change       -0.1175992E-01 Eh
 * total energy  :    -8.7775803 Eh     change       -0.1163786E-01 Eh
 * total energy  :    -8.7569450 Eh     change        0.2063526E-01 Eh
 * total energy  :    -8.7837807 Eh     change       -0.2683567E-01 Eh
 * total energy  :    -8.7532236 Eh     change        0.3055706E-01 Eh
 * total energy  :    -8.7872158 Eh     change       -0.3399216E-01 Eh
 * total energy  :    -8.7985259 Eh     change       -0.4043963E-04 Eh
 * total energy  :    -8.7985503 Eh     change       -0.2444667E-04 Eh
 * total energy  :    -8.7985831 Eh     change       -0.3278163E-04 Eh
 * total energy  :    -8.7985521 Eh     change        0.3099059E-04 Eh
 * total energy  :    -8.7986048 Eh     change       -0.5270713E-04 Eh
 * total energy  :    -8.7985581 Eh     change        0.4670141E-04 Eh
 * total energy  :    -8.7986038 Eh     change       -0.4563132E-04 Eh
 * total energy  :    -8.7986078 Eh     change       -0.4060304E-05 Eh
 * total energy  :    -8.7986100 Eh     change       -0.2171629E-05 Eh
   *** GEOMETRY OPTIMIZATION CONVERGED AFTER 27 ITERATIONS ***

 final structure:
================
5
 xtb: 6.2.2 (9d81278992624c895f80dd42a50cac0aa55982e2)
C        -1.29160089646307   -0.00120221021061    0.02520387061794
C        -0.08581983980134    0.04108277785760    0.01757147953281
C         1.27356363141944    0.12222054211650    0.02496683901584
C         2.44443415187381   -0.16583211306622   -0.11378969324997
H        -2.34057704702884    0.00373100330274    0.04604850408343

          :  Hamiltonian                  GFN2-xTB          :
         :: gradient norm              0.000456439627 Eh/a0 ::
         :: HOMO-LUMO gap              4.268203873202 eV    ::
         :: SCC energy                -9.071114515099 Eh    ::
         :: -> dispersion             -0.002148570630 Eh    ::
         :: repulsion energy           0.272505075600 Eh    ::

    * Orbital Energies and Occupations

         #    Occupation            Energy/Eh            Energy/eV
      -------------------------------------------------------------
         1        2.0000           -0.6410148             -17.4429
         2        2.0000           -0.6296009             -17.1323
         3        2.0000           -0.5771611             -15.7054
         4        2.0000           -0.5176536             -14.0861
         5        2.0000           -0.4809742             -13.0880
         6        2.0000           -0.4807924             -13.0830
         7        2.0000           -0.4213366             -11.4652
         8        1.9999           -0.4168864             -11.3441
         9        1.0001           -0.4000832             -10.8868 (HOMO)
        10                         -0.2432293              -6.6186 (LUMO)
        11                         -0.2401174              -6.5339
        12                         -0.0966913              -2.6311
        13                         -0.0845033              -2.2995
        14                          0.0735467               2.0013
        15                          0.3453044               9.3962
        16                          1.0721060              29.1735
        17                          1.5156276              41.2423
      -------------------------------------------------------------
                  HL-Gap            0.1568539 Eh            4.2682 eV

     #   Z        covCN         q      C6AA      Î±(0)
     1   6 C      1.910    -0.070    33.009     9.279
     2   6 C      1.963     0.029    30.330     8.894
     3   6 C      1.963     0.021    30.518     8.921
     4   6 C      0.983    -0.079    38.397    10.409
     5   1 H      0.928     0.098     1.800     2.098

Wiberg/Mayer (AO) data.
largest (>0.10) Wiberg bond orders for each atom
          total WBO             WBO to atom ...

molecular dipole:
                 x           y           z       tot (Debye)
 q only:       -0.580       0.033       0.024
   full:       -0.679       0.119       0.061       1.758

 projected vibrational frequencies (cm-1)
eigval :       -0.00    -0.00    -0.00    -0.00     0.00     0.00
eigval :      185.08   289.55   366.21   587.81   616.51   950.51
eigval :     2046.19  2176.31  3390.02

   temp. (K)  partition function   enthalpy   heat capacity  entropy
                                   cal/mol     cal/K/mol   cal/K/mol   J/K/mol
  10.00  VIB   1.00                    0.000      0.000     -0.008
         ROT   34.9                   29.809      2.981     10.040
         INT   34.9                   29.809      2.981     10.032
         TR   0.204E+25               49.681      4.968     20.719
         TOT                          79.4904     7.9490    30.7511   128.6624

       T/K    H(0)-H(T)+PV         H(T)/Eh          T*S/Eh         G(T)/Eh
   ------------------------------------------------------------------------
    298.15    0.550168E-02    0.296689E-01    0.302168E-01   -0.547815E-03
    120.00    0.169032E-02    0.258576E-01    0.989032E-02    0.159673E-01
    100.00    0.136039E-02    0.255276E-01    0.794158E-02    0.175861E-01
     80.00    0.105444E-02    0.252217E-01    0.608063E-02    0.191411E-01
     60.00    0.771676E-03    0.249389E-01    0.431687E-02    0.206221E-01
     40.00    0.507832E-03    0.246751E-01    0.266429E-02    0.220108E-01
     20.00    0.253353E-03    0.244206E-01    0.115580E-02    0.232648E-01
     10.00    0.126676E-03    0.242939E-01    0.490049E-03    0.238039E-01 (used)
   ------------------------------------------------------------------------

         :::::::::::::::::::::::::::::::::::::::::::::::::::::
         ::                  THERMODYNAMIC                  ::
         :::::::::::::::::::::::::::::::::::::::::::::::::::::
         :: total free energy          -8.774806101383 Eh   ::
         ::.................................................::
         :: total energy               -8.798609990503 Eh   ::
         :: zero point energy           0.024167262388 Eh   ::
         :: G(RRHO) w/o ZPVE           -0.000363373267 Eh   ::
         :: G(RRHO) contrib.            0.023803889121 Eh   ::
         :::::::::::::::::::::::::::::::::::::::::::::::::::::

           -------------------------------------------------
          | TOTAL ENERGY               -8.798609990503 Eh   |
          | TOTAL ENTHALPY             -8.774316052100 Eh   |
          | TOTAL FREE ENERGY          -8.774806101383 Eh   |
          | GRADIENT NORM               0.000456508799 Eh/Î± |
          | HOMO-LUMO GAP               4.268212023970 eV   |
           -------------------------------------------------

 * finished run on 2020/05/12 at 11:45:08.666
