   * xtb version 6.2.2 (9d81278992624c895f80dd42a50cac0aa55982e2) compiled by '@Darwin' on 04/03/2020
          program call               : xtb --input O1_0_S_1.input O1_0_S_1.xyz --ohess --molden --namespace O1_0_S_1 output.out
          number of atoms            :                     1
          number of electrons        :                     6
          charge                     :                     0
          spin                       :                   0.5

   ID    Z sym.   atoms
    1    8 O      1

          :  Hamiltonian                  GFN2-xTB          :

 final structure:
================
1
 xtb: 6.2.2 (9d81278992624c895f80dd42a50cac0aa55982e2)
O         0.00000000000000    0.00000000000000    0.00000000000000

          :  Hamiltonian                  GFN2-xTB          :
         :: gradient norm              0.000000000000 Eh/a0 ::
         :: HOMO-LUMO gap              0.000000000000 eV    ::
         :: SCC energy                -3.769421097344 Eh    ::
         :: -> dispersion              0.000000000000 Eh    ::
         :: repulsion energy           0.000000000000 Eh    ::

    * Orbital Energies and Occupations

         #    Occupation            Energy/Eh            Energy/eV
      -------------------------------------------------------------
         1        2.0000           -0.7434383             -20.2300
         2        1.3333           -0.5697291             -15.5031
         3        1.3333           -0.5697291             -15.5031 (HOMO)
         4        1.3333           -0.5697291             -15.5031 (LUMO)
      -------------------------------------------------------------
                  HL-Gap            0.0000000 Eh            0.0000 eV

     #   Z        covCN         q      C6AA      Î±(0)
     1   8 O      0.000     0.000    15.568     5.197

Wiberg/Mayer (AO) data.
largest (>0.10) Wiberg bond orders for each atom
          total WBO             WBO to atom ...

molecular dipole:
                 x           y           z       tot (Debye)
 q only:        0.000       0.000       0.000
   full:        0.000       0.000       0.000       0.000

   temp. (K)  partition function   enthalpy   heat capacity  entropy
                                   cal/mol     cal/K/mol   cal/K/mol   J/K/mol
  10.00  VIB   1.00                    0.000      0.000      0.000
         ROT   1.00                    0.000      0.000      0.000
         INT   1.00                    0.000      0.000      0.000
         TR   0.380E+24               49.681      4.968     17.381
         TOT                          49.6815     4.9681    17.3811    72.7227

       T/K    H(0)-H(T)+PV         H(T)/Eh          T*S/Eh         G(T)/Eh
   ------------------------------------------------------------------------
    298.15    0.236053E-02    0.236053E-02    0.162684E-01   -0.139079E-01
    120.00    0.950070E-03    0.950070E-03    0.568351E-02   -0.473344E-02
    100.00    0.791725E-03    0.791725E-03    0.459198E-02   -0.380026E-02
     80.00    0.633380E-03    0.633380E-03    0.353232E-02   -0.289894E-02
     60.00    0.475035E-03    0.475035E-03    0.251265E-02   -0.203761E-02
     40.00    0.316690E-03    0.316690E-03    0.154676E-02   -0.123007E-02
     20.00    0.158345E-03    0.158345E-03    0.663675E-03   -0.505330E-03
     10.00    0.791725E-04    0.791725E-04    0.276986E-03   -0.197813E-03 (used)
   ------------------------------------------------------------------------

         :::::::::::::::::::::::::::::::::::::::::::::::::::::
         ::                  THERMODYNAMIC                  ::
         :::::::::::::::::::::::::::::::::::::::::::::::::::::
         :: total free energy          -3.769618910834 Eh   ::
         ::.................................................::
         :: total energy               -3.769421097344 Eh   ::
         :: zero point energy           0.000000000000 Eh   ::
         :: G(RRHO) w/o ZPVE           -0.000197813490 Eh   ::
         :: G(RRHO) contrib.           -0.000197813490 Eh   ::
         :::::::::::::::::::::::::::::::::::::::::::::::::::::

           -------------------------------------------------
          | TOTAL ENERGY               -3.769421097344 Eh   |
          | TOTAL ENTHALPY             -3.769341924834 Eh   |
          | TOTAL FREE ENERGY          -3.769618910834 Eh   |
          | GRADIENT NORM               0.000000000000 Eh/Î± |
          | HOMO-LUMO GAP               0.000000000000 eV   |
           -------------------------------------------------

 * finished run on 2020/05/14 at 11:33:58.193
