   * xtb version 6.2.2 (9d81278992624c895f80dd42a50cac0aa55982e2) compiled by '@Darwin' on 04/03/2020
          program call               : xtb --input H2C1O1_0_S_2.input H2C1O1_0_S_2.xyz --ohess --molden --namespace H2C1O1_0_S_2 output.out
          number of atoms            :                     4
          number of electrons        :                    12
          charge                     :                     0
          spin                       :                   1.0

   ID    Z sym.   atoms
    1    8 O      1
    2    6 C      2
    3    1 H      3, 4

          :  Hamiltonian                  GFN2-xTB          :
 * total energy  :    -7.0155048 Eh     change        0.1417675E-09 Eh
 * total energy  :    -7.0202855 Eh     change       -0.4780716E-02 Eh
 * total energy  :    -7.0213614 Eh     change       -0.1075852E-02 Eh
 * total energy  :    -7.0213850 Eh     change       -0.2358454E-04 Eh
 * total energy  :    -7.0213862 Eh     change       -0.1260781E-05 Eh
   *** GEOMETRY OPTIMIZATION CONVERGED AFTER 5 ITERATIONS ***

 final structure:
================
4
 xtb: 6.2.2 (9d81278992624c895f80dd42a50cac0aa55982e2)
O        -0.61864133096444   -0.34757227071672    0.15926932405904
C         0.52503196925794    0.29976171219791   -0.13724737791071
H        -1.38266031535226    0.19372547000327   -0.06565481505646
H         1.47627067705876   -0.14591491148446    0.04363286890814

          :  Hamiltonian                  GFN2-xTB          :
         :: gradient norm              0.000442164129 Eh/a0 ::
         :: HOMO-LUMO gap              9.588636271677 eV    ::
         :: SCC energy                -7.069844212032 Eh    ::
         :: -> dispersion             -0.000624205456 Eh    ::
         :: repulsion energy           0.048457993012 Eh    ::

    * Orbital Energies and Occupations

         #    Occupation            Energy/Eh            Energy/eV
      -------------------------------------------------------------
         1        2.0000           -0.7128848             -19.3986
         2        2.0000           -0.6232228             -16.9588
         3        2.0000           -0.5586270             -15.2010
         4        2.0000           -0.5134625             -13.9720
         5        2.0000           -0.5067364             -13.7890
         6        1.0000           -0.3390417              -9.2258
         7        1.0000           -0.2741161              -7.4591 (HOMO)
         8                          0.0782598               2.1296 (LUMO)
         9                          0.2305739               6.2742
        10                          0.2890488               7.8654
      -------------------------------------------------------------
                  HL-Gap            0.3523759 Eh            9.5886 eV

     #   Z        covCN         q      C6AA      Î±(0)
     1   8 O      1.659    -0.324    19.433     5.951
     2   6 C      1.781    -0.060    32.865     9.267
Molecule has the following symmetry elements: (sigma)
It seems to be the Cs point group
     3   1 H      0.805     0.319     0.668     1.284
     4   1 H      0.927     0.066     2.133     2.284

Wiberg/Mayer (AO) data.
largest (>0.10) Wiberg bond orders for each atom
          total WBO             WBO to atom ...

molecular dipole:
                 x           y           z       tot (Debye)
 q only:       -0.330       0.277      -0.116
   full:       -0.443       0.265      -0.109       1.341

 projected vibrational frequencies (cm-1)
eigval :       -0.00    -0.00    -0.00    -0.00     0.00     0.00
eigval :     -286.36   882.10  1124.38  1337.13  3149.44  3511.97

   temp. (K)  partition function   enthalpy   heat capacity  entropy
                                   cal/mol     cal/K/mol   cal/K/mol   J/K/mol
  10.00  VIB   1.00                    0.000      0.000     -0.000
         ROT   8.73                   29.809      2.981      7.288
         INT   8.73                   29.809      2.981      7.288
         TR   0.978E+24               49.681      4.968     19.257
         TOT                          79.4904     7.9490    26.5444   111.0619

       T/K    H(0)-H(T)+PV         H(T)/Eh          T*S/Eh         G(T)/Eh
   ------------------------------------------------------------------------
    298.15    0.386688E-02    0.266600E-01    0.255398E-01    0.112015E-02
    120.00    0.152022E-02    0.243133E-01    0.885246E-02    0.154609E-01
    100.00    0.126677E-02    0.240599E-01    0.714608E-02    0.169138E-01
     80.00    0.101341E-02    0.238065E-01    0.549078E-02    0.183157E-01
     60.00    0.760056E-03    0.235532E-01    0.389950E-02    0.196537E-01
     40.00    0.506704E-03    0.232998E-01    0.239428E-02    0.209055E-01
     20.00    0.253352E-03    0.230464E-01    0.102158E-02    0.220249E-01
     10.00    0.126676E-03    0.229198E-01    0.423013E-03    0.224968E-01 (used)
   ------------------------------------------------------------------------

         :::::::::::::::::::::::::::::::::::::::::::::::::::::
         ::                  THERMODYNAMIC                  ::
         :::::::::::::::::::::::::::::::::::::::::::::::::::::
         :: total free energy          -6.998889461857 Eh   ::
         ::.................................................::
         :: total energy               -7.021386222969 Eh   ::
         :: zero point energy           0.022793097639 Eh   ::
         :: G(RRHO) w/o ZPVE           -0.000296336528 Eh   ::
         :: G(RRHO) contrib.            0.022496761111 Eh   ::
         :::::::::::::::::::::::::::::::::::::::::::::::::::::

           -------------------------------------------------
          | TOTAL ENERGY               -7.021386222969 Eh   |
          | TOTAL ENTHALPY             -6.998466449314 Eh   |
          | TOTAL FREE ENERGY          -6.998889461857 Eh   |
          | GRADIENT NORM               0.000442126331 Eh/Î± |
          | HOMO-LUMO GAP               9.588636660901 eV   |
           -------------------------------------------------

 * finished run on 2020/05/12 at 11:45:07.274
