   * xtb version 6.2.2 (9d81278992624c895f80dd42a50cac0aa55982e2) compiled by '@Darwin' on 04/03/2020
          program call               : xtb --input C3N1_9_S_3.input C3N1_9_S_3.xyz --ohess --molden --namespace C3N1_9_S_3 output.out
          number of atoms            :                     4
          number of electrons        :                    17
          charge                     :                     0
          spin                       :                   1.5

   ID    Z sym.   atoms
    1    7 N      1
    2    6 C      2-4

          :  Hamiltonian                  GFN2-xTB          :
 * total energy  :    -8.8691594 Eh     change       -0.1711532E-08 Eh
 * total energy  :    -8.8916593 Eh     change       -0.2249986E-01 Eh
 * total energy  :    -8.9170306 Eh     change       -0.2537137E-01 Eh
 * total energy  :    -8.9214535 Eh     change       -0.4422885E-02 Eh
 * total energy  :    -8.9249163 Eh     change       -0.3462789E-02 Eh
 * total energy  :    -8.9253340 Eh     change       -0.4177361E-03 Eh
 * total energy  :    -8.9253495 Eh     change       -0.1547859E-04 Eh
 * total energy  :    -8.9253500 Eh     change       -0.4924609E-06 Eh
   *** GEOMETRY OPTIMIZATION CONVERGED AFTER 8 ITERATIONS ***

 final structure:
================
4
 xtb: 6.2.2 (9d81278992624c895f80dd42a50cac0aa55982e2)
N        -1.02688810202255   -0.03176786410699   -0.05982414040563
C        -0.05273883527028    0.86950846478633    0.18859526384871
C         1.06789816010487    0.05330763100029   -0.14562788442916
C         0.01172877718797   -0.89104823167963    0.01685576098607

          :  Hamiltonian                  GFN2-xTB          :
         :: gradient norm              0.000505414224 Eh/a0 ::
         :: HOMO-LUMO gap              1.719902309438 eV    ::
         :: SCC energy                -9.028629636827 Eh    ::
         :: -> dispersion             -0.001717367026 Eh    ::
         :: repulsion energy           0.103279616459 Eh    ::

    * Orbital Energies and Occupations

         #    Occupation            Energy/Eh            Energy/eV
      -------------------------------------------------------------
         1        2.0000           -0.7517450             -20.4560
         2        2.0000           -0.6551588             -17.8278
         3        2.0000           -0.6330799             -17.2270
         4        2.0000           -0.5759540             -15.6725
         5        2.0000           -0.5588537             -15.2072
         6        2.0000           -0.5125933             -13.9484
         7        2.0000           -0.4741888             -12.9033
         8        1.0000           -0.4380707             -11.9205
         9        1.0000           -0.4029677             -10.9653
        10        1.0000           -0.3920710             -10.6688 (HOMO)
        11                         -0.3288657              -8.9489 (LUMO)
        12                         -0.2358537              -6.4179
        13                          0.0930639               2.5324
        14                          0.1558683               4.2414
        15                          0.1601287               4.3573
        16                          0.4375921              11.9075
      -------------------------------------------------------------
                  HL-Gap            0.0632053 Eh            1.7199 eV

     #   Z        covCN         q      C6AA      Î±(0)
     1   7 N      2.006    -0.062    23.121     7.132
     2   6 C      2.761     0.035    27.204     8.541
     3   6 C      2.146    -0.007    30.931     8.990
     4   6 C      2.761     0.035    27.204     8.541

Wiberg/Mayer (AO) data.
largest (>0.10) Wiberg bond orders for each atom
          total WBO             WBO to atom ...

molecular dipole:
                 x           y           z       tot (Debye)
 q only:        0.102       0.002       0.023
   full:        0.071       0.011      -0.089       0.291

 projected vibrational frequencies (cm-1)
eigval :       -0.00    -0.00     0.00     0.00     0.00     0.00
eigval :      577.31   806.21   858.84  1111.31  1198.06  1428.03

   temp. (K)  partition function   enthalpy   heat capacity  entropy
                                   cal/mol     cal/K/mol   cal/K/mol   J/K/mol
  10.00  VIB   1.00                    0.000      0.000     -0.000
         ROT   76.4                   29.809      2.981     11.598
         INT   76.4                   29.809      2.981     11.598
         TR   0.210E+25               49.681      4.968     20.778
         TOT                          79.4904     7.9490    32.3764   135.4630

       T/K    H(0)-H(T)+PV         H(T)/Eh          T*S/Eh         G(T)/Eh
   ------------------------------------------------------------------------
    298.15    0.413676E-02    0.177597E-01    0.286647E-01   -0.109050E-01
    120.00    0.152308E-02    0.151460E-01    0.997103E-02    0.517495E-02
    100.00    0.126746E-02    0.148904E-01    0.807626E-02    0.681409E-02
     80.00    0.101349E-02    0.146364E-01    0.623441E-02    0.840198E-02
     60.00    0.760059E-03    0.143830E-01    0.445715E-02    0.992581E-02
     40.00    0.506704E-03    0.141296E-01    0.276604E-02    0.113636E-01
     20.00    0.253352E-03    0.138762E-01    0.120746E-02    0.126688E-01
     10.00    0.126676E-03    0.137496E-01    0.515951E-03    0.132336E-01 (used)
   ------------------------------------------------------------------------

         :::::::::::::::::::::::::::::::::::::::::::::::::::::
         ::                  THERMODYNAMIC                  ::
         :::::::::::::::::::::::::::::::::::::::::::::::::::::
         :: total free energy          -8.912116393987 Eh   ::
         ::.................................................::
         :: total energy               -8.925350015173 Eh   ::
         :: zero point energy           0.013622896585 Eh   ::
         :: G(RRHO) w/o ZPVE           -0.000389275399 Eh   ::
         :: G(RRHO) contrib.            0.013233621186 Eh   ::
         :::::::::::::::::::::::::::::::::::::::::::::::::::::

           -------------------------------------------------
          | TOTAL ENERGY               -8.925350015173 Eh   |
          | TOTAL ENTHALPY             -8.911600442573 Eh   |
          | TOTAL FREE ENERGY          -8.912116393987 Eh   |
          | GRADIENT NORM               0.000505241955 Eh/Î± |
          | HOMO-LUMO GAP               1.719902768702 eV   |
           -------------------------------------------------

 * finished run on 2020/05/12 at 11:45:06.762
