   * xtb version 6.2.2 (9d81278992624c895f80dd42a50cac0aa55982e2) compiled by '@Darwin' on 04/03/2020
          program call               : xtb --input C4N1_37_S_3.input C4N1_37_S_3.xyz --ohess --molden --namespace C4N1_37_S_3 output.out
          number of atoms            :                     5
          number of electrons        :                    21
          charge                     :                     0
          spin                       :                   1.5

   ID    Z sym.   atoms
    1    7 N      1
    2    6 C      2-5

          :  Hamiltonian                  GFN2-xTB          :
 * total energy  :   -10.9190907 Eh     change        0.1386393E-08 Eh
 * total energy  :   -10.9420857 Eh     change       -0.2299505E-01 Eh
 * total energy  :   -10.9553704 Eh     change       -0.1328466E-01 Eh
 * total energy  :   -10.9575465 Eh     change       -0.2176116E-02 Eh
 * total energy  :   -10.9581733 Eh     change       -0.6268317E-03 Eh
 * total energy  :   -10.9582279 Eh     change       -0.5457646E-04 Eh
 * total energy  :   -10.9582306 Eh     change       -0.2703253E-05 Eh
   *** GEOMETRY OPTIMIZATION CONVERGED AFTER 7 ITERATIONS ***

 final structure:
================
5
 xtb: 6.2.2 (9d81278992624c895f80dd42a50cac0aa55982e2)
N        -0.98277257577510   -0.34034245191967    0.69014806898046
C        -0.45264908445756   -0.44983368975613   -0.58745570663179
C         0.99589875321477   -0.45556425568706   -0.21417500556012
C         0.22975156291930    0.88001726388704   -0.64653541581550
C         0.20977134409857    0.36572313347582    0.75801705902694

          :  Hamiltonian                  GFN2-xTB          :
         :: gradient norm              0.000890618086 Eh/a0 ::
         :: HOMO-LUMO gap              0.903366214909 eV    ::
         :: SCC energy               -11.074123923286 Eh    ::
         :: -> dispersion             -0.002493285994 Eh    ::
         :: repulsion energy           0.115893314498 Eh    ::

    * Orbital Energies and Occupations

         #    Occupation            Energy/Eh            Energy/eV
      -------------------------------------------------------------
         1        2.0000           -0.7724379             -21.0191
         2        2.0000           -0.6835482             -18.6003
         3        2.0000           -0.6371002             -17.3364
         4        2.0000           -0.6324685             -17.2103
         5        2.0000           -0.5718470             -15.5607
         6        2.0000           -0.5365512             -14.6003
         7        2.0000           -0.4950660             -13.4714
         8        2.0000           -0.4845438             -13.1851
         9        1.9999           -0.4783247             -13.0159
        10        1.0001           -0.4596074             -12.5066
        11        1.0000           -0.4404648             -11.9857
        12        1.0000           -0.3812507             -10.3744 (HOMO)
        13                         -0.3480526              -9.4710 (LUMO)
        14                         -0.1623237              -4.4171
        15                         -0.1166527              -3.1743
        16                          0.0656432               1.7862
        17                          0.0917405               2.4964
        18                          0.1043275               2.8389
        19                          0.1307121               3.5569
        20                          0.3293586               8.9623
      -------------------------------------------------------------
                  HL-Gap            0.0331981 Eh            0.9034 eV

     #   Z        covCN         q      C6AA      Î±(0)
     1   7 N      2.007    -0.138    24.712     7.373
     2   6 C      3.786     0.084    19.195     6.240
     3   6 C      3.013    -0.016    28.379     8.739
     4   6 C      3.013    -0.016    28.379     8.739
     5   6 C      3.786     0.084    19.195     6.240

Wiberg/Mayer (AO) data.
largest (>0.10) Wiberg bond orders for each atom
          total WBO             WBO to atom ...

molecular dipole:
                 x           y           z       tot (Debye)
 q only:        0.181       0.063      -0.127
   full:        0.006       0.002      -0.004       0.020

 projected vibrational frequencies (cm-1)
eigval :       -0.00    -0.00    -0.00     0.00     0.00     0.00
eigval :     -766.14   580.29   672.62   811.82   824.49   981.99
eigval :      982.35  1276.84  1378.52

   temp. (K)  partition function   enthalpy   heat capacity  entropy
                                   cal/mol     cal/K/mol   cal/K/mol   J/K/mol
  10.00  VIB   1.00                    0.000      0.000     -0.000
         ROT   71.6                   29.809      2.981     11.470
         INT   71.6                   29.809      2.981     11.469
         TR   0.290E+25               49.681      4.968     21.419
         TOT                          79.4904     7.9490    32.8888   137.6068

       T/K    H(0)-H(T)+PV         H(T)/Eh          T*S/Eh         G(T)/Eh
   ------------------------------------------------------------------------
    298.15    0.431819E-02    0.214248E-01    0.291399E-01   -0.771511E-02
    120.00    0.152408E-02    0.186307E-01    0.100701E-01    0.856054E-02
    100.00    0.126764E-02    0.183742E-01    0.815813E-02    0.102161E-01
     80.00    0.101351E-02    0.181201E-01    0.629975E-02    0.118204E-01
     60.00    0.760059E-03    0.178667E-01    0.450615E-02    0.133605E-01
     40.00    0.506704E-03    0.176133E-01    0.279870E-02    0.148146E-01
     20.00    0.253352E-03    0.173600E-01    0.122379E-02    0.161362E-01
     10.00    0.126676E-03    0.172333E-01    0.524117E-03    0.167092E-01 (used)
   ------------------------------------------------------------------------

         :::::::::::::::::::::::::::::::::::::::::::::::::::::
         ::                  THERMODYNAMIC                  ::
         :::::::::::::::::::::::::::::::::::::::::::::::::::::
         :: total free energy         -10.941521426071 Eh   ::
         ::.................................................::
         :: total energy              -10.958230587514 Eh   ::
         :: zero point energy           0.017106602013 Eh   ::
         :: G(RRHO) w/o ZPVE           -0.000397440570 Eh   ::
         :: G(RRHO) contrib.            0.016709161443 Eh   ::
         :::::::::::::::::::::::::::::::::::::::::::::::::::::

           -------------------------------------------------
          | TOTAL ENERGY              -10.958230587514 Eh   |
          | TOTAL ENTHALPY            -10.940997309485 Eh   |
          | TOTAL FREE ENERGY         -10.941521426071 Eh   |
          | GRADIENT NORM               0.000890581790 Eh/Î± |
          | HOMO-LUMO GAP               0.903366186301 eV   |
           -------------------------------------------------

 * finished run on 2020/05/12 at 11:44:15.071
