 Gaussian 16, Revision B.01,

 --------------------------------------------------------
 #P M062X/cc-pvtz nosymm opt(noeigentest) optcyc=120 freq
 --------------------------------------------------------

 -----
 Title
 -----
 Symbolic Z-matrix:
 Charge =  0 Multiplicity = 3

 SCF Done:  E(UM062X) =  -39.1347622899     A.U. after   13 cycles
 SCF Done:  E(UM062X) =  -39.1438478932     A.U. after   13 cycles
 SCF Done:  E(UM062X) =  -39.1450692184     A.U. after   12 cycles
 SCF Done:  E(UM062X) =  -39.1450827214     A.U. after    8 cycles
 Optimization completed.
    -- Stationary point found.
 Normal termination of Gaussian 16 at Fri Oct  2 21:27:12 2020.

 -------------------------------------------------------------------
 #P Geom=AllCheck Guess=TCheck SCRF=Check GenChk UM062X/CC-pVTZ Freq
 -------------------------------------------------------------------

 Structure from the checkpoint file:  "input.chk"
 -----
 Title
 -----
 Charge =  0 Multiplicity = 3

 SCF Done:  E(UM062X) =  -39.1450827214     A.U. after    1 cycles

  Exact polarizability:  11.187  -0.000   9.498  -1.661  -0.000  12.326
 Approx polarizability:  11.091  -0.000   9.542  -1.418  -0.000  12.094

                      1                      2                      3
                      A                      A                      A
 Frequencies --   1096.9441              3171.0425              3393.7692
 Red. masses --      1.1351                 1.0280                 1.1378
 Frc consts  --      0.8047                 6.0903                 7.7210
 IR Inten    --     11.2764                 0.8707                 0.4367

 - Thermochemistry -
 -------------------
 Temperature   298.150 Kelvin.  Pressure   1.00000 Atm.
 Atom     1 has atomic number  6 and mass  12.00000

 Molecular mass:    14.01565 amu.
 Principal axes and moments of inertia in atomic units:
                           1         2         3
     Eigenvalues --     1.08359   7.06728   8.15087
           X           -0.57735   0.81650  -0.00000
           Y            0.00000   0.00000   1.00000
           Z            0.81650   0.57735  -0.00000
 This molecule is an asymmetric top.
 Rotational symmetry number  1.
 Rotational temperatures (Kelvin)     79.93210    12.25563    10.62634
 Rotational constants (GHZ):        1665.51458   255.36582   221.41696
 Zero-point vibrational energy      45827.5 (Joules/Mol)
                                   10.95303 (Kcal/Mol)
 Vibrational temperatures:   1578.26  4562.42  4882.88
          (Kelvin)

 Zero-point correction=                           0.017455 (Hartree/Particle)
 Thermal correction to Energy=                    0.020313
 Thermal correction to Enthalpy=                  0.021257
 Thermal correction to Gibbs Free Energy=        -0.001558
 Sum of electronic and zero-point Energies=            -39.127628
 Sum of electronic and thermal Energies=               -39.124770
 Sum of electronic and thermal Enthalpies=             -39.123826
 Sum of electronic and thermal Free Energies=          -39.146641

                     E (Thermal)             CV                S
                      KCal/Mol        Cal/Mol-Kelvin    Cal/Mol-Kelvin
 Total                   12.746              6.244             48.017
 Electronic               0.000              0.000              2.183
 Translational            0.889              2.981             33.861
 Rotational               0.889              2.981             11.910
 Vibrational             10.969              0.283              0.063

 Optimization completed.
    -- Stationary point found.
 Normal termination of Gaussian 16 at Fri Oct  2 21:27:21 2020.
 Gaussian 16:  ES64L-G16RevB.01 20-Dec-2017

 -------------------------------------------------
 #P ROCCSD(T)/aug-cc-pvtz geom=allcheck guess=read
 -------------------------------------------------

 Structure from the checkpoint file:  "input.chk"
 -----
 Title
 -----
 Charge =  0 Multiplicity = 3

                         Standard orientation:
 ---------------------------------------------------------------------
 Center     Atomic      Atomic             Coordinates (Angstroms)
 Number     Number       Type             X           Y           Z
 ---------------------------------------------------------------------
      1          6           0        0.000000    0.104829    0.000000
      2          1           0        0.990877   -0.314537    0.000000
      3          1           0       -0.990877   -0.314439   -0.000000
 ---------------------------------------------------------------------

 SCF Done:  E(ROHF) =  -38.9325357322     A.U. after   15 cycles
 E2 =    -0.1249645371D+00 EUMP2 =    -0.39057500269245D+02
 CCSD(T)
 CCSD(T)= -0.39080045729D+02

 The electronic state is 3-A".
 Alpha  occ. eigenvalues --  -11.26692  -0.94299  -0.62765  -0.44786  -0.40193
 Alpha virt. eigenvalues --    0.03056   0.04504   0.08893   0.09430   0.13731
 Alpha virt. eigenvalues --    0.14021   0.19981   0.22696   0.25844   0.28430
 Alpha virt. eigenvalues --    0.28862   0.33494   0.33505   0.34170   0.37198

 Mulliken charges and spin densities:
               1          2
     1  C   -0.904716   1.913482
     2  H    0.452336   0.043259
     3  H    0.452380   0.043258
 Sum of Mulliken charges =  -0.00000   2.00000

 Dipole moment (field-independent basis, Debye):
    X=             -0.0000    Y=             -0.5768    Z=             -0.0000  Tot=              0.5768
 Quadrupole moment (field-independent basis, Debye-Ang):
   XX=             -5.8673   YY=             -7.7057   ZZ=             -8.2502
   XY=             -0.0001   XZ=              0.0000   YZ=              0.0000

 0575003\MP4SDQ=-39.0758277\CCSD=-39.0763624\CCSD(T)=-39.0800457\RMSD=6
 Normal termination of Gaussian 16 at Fri Oct  2 21:27:44 2020.
