   * xtb version 6.2.2 (9d81278992624c895f80dd42a50cac0aa55982e2) compiled by '@Darwin' on 04/03/2020
          program call               : xtb --input C2O1_1_S_0.input C2O1_1_S_0.xyz --ohess --molden --namespace C2O1_1_S_0 output.out
          number of atoms            :                     3
          number of electrons        :                    14
          charge                     :                     0
          spin                       :                   0.0

   ID    Z sym.   atoms
    1    8 O      1
    2    6 C      2, 3

          :  Hamiltonian                  GFN2-xTB          :
 * total energy  :    -7.9656096 Eh     change        0.1548415E-09 Eh
 * total energy  :    -8.0038058 Eh     change       -0.3819624E-01 Eh
 * total energy  :    -8.0702892 Eh     change       -0.6648339E-01 Eh
 * total energy  :    -7.9937143 Eh     change        0.7657492E-01 Eh
 * total energy  :    -8.0835696 Eh     change       -0.8985538E-01 Eh
 * total energy  :    -8.0860384 Eh     change       -0.2468729E-02 Eh
 * total energy  :    -8.0863098 Eh     change       -0.2714586E-03 Eh
 * total energy  :    -8.0863508 Eh     change       -0.4100267E-04 Eh
 * total energy  :    -8.0863510 Eh     change       -0.1476033E-06 Eh
   *** GEOMETRY OPTIMIZATION CONVERGED AFTER 9 ITERATIONS ***

 final structure:
================
3
 xtb: 6.2.2 (9d81278992624c895f80dd42a50cac0aa55982e2)
O         0.00138293906899    0.72561078920220    0.00000000000000
C        -0.73123610949955   -0.36141336290818    0.00000000000000
C         0.72985317043056   -0.36419842629402    0.00000000000000

          :  Hamiltonian                  GFN2-xTB          :
         :: gradient norm              0.000279535615 Eh/a0 ::
         :: HOMO-LUMO gap              2.179423264153 eV    ::
         :: SCC energy                -8.140071258354 Eh    ::
         :: -> dispersion             -0.000797886244 Eh    ::
         :: repulsion energy           0.053720275671 Eh    ::

    * Orbital Energies and Occupations

         #    Occupation            Energy/Eh            Energy/eV
      -------------------------------------------------------------
         1        2.0000           -0.8267403             -22.4967
         2        2.0000           -0.6987360             -19.0136
         3        2.0000           -0.6962493             -18.9459
         4        2.0000           -0.6434168             -17.5083
         5        2.0000           -0.5216652             -14.1952
         6        2.0000           -0.4966803             -13.5154
         7        2.0000           -0.4487962             -12.2124 (HOMO)
         8                         -0.3687039             -10.0329 (LUMO)
         9                         -0.3318069              -9.0289
        10                         -0.0943665              -2.5678
        11                          0.2089818               5.6867
        12                          0.2847835               7.7494
      -------------------------------------------------------------
                  HL-Gap            0.0800923 Eh            2.1794 eV

     #   Z        covCN         q      C6AA      Î±(0)
     1   8 O      1.709     0.005    14.411     5.126
     2   6 C      1.833    -0.003    31.238     9.030
     3   6 C      1.833    -0.003    31.238     9.030

Wiberg/Mayer (AO) data.
largest (>0.10) Wiberg bond orders for each atom
          total WBO             WBO to atom ...

molecular dipole:
                 x           y           z       tot (Debye)
 q only:        0.000       0.011      -0.000
   full:        0.001       0.566      -0.000       1.439

 projected vibrational frequencies (cm-1)
eigval :       -0.00    -0.00     0.00     0.00     0.00     0.00
eigval :     1094.13  1106.69  1572.10

   temp. (K)  partition function   enthalpy   heat capacity  entropy
                                   cal/mol     cal/K/mol   cal/K/mol   J/K/mol
  10.00  VIB   1.00                    0.000      0.000     -0.000
         ROT   13.9                   29.809      2.981      8.217
         INT   13.9                   29.809      2.981      8.216
         TR   0.150E+25               49.681      4.968     20.113
         TOT                          79.4904     7.9490    28.3293   118.5298

       T/K    H(0)-H(T)+PV         H(T)/Eh          T*S/Eh         G(T)/Eh
   ------------------------------------------------------------------------
    298.15    0.383029E-02    0.124256E-01    0.263420E-01   -0.139164E-01
    120.00    0.152013E-02    0.101155E-01    0.919368E-02    0.921782E-03
    100.00    0.126676E-02    0.986210E-02    0.743050E-02    0.243160E-02
     80.00    0.101341E-02    0.960874E-02    0.571833E-02    0.389041E-02
     60.00    0.760056E-03    0.935539E-02    0.407016E-02    0.528523E-02
     40.00    0.506704E-03    0.910204E-02    0.250805E-02    0.659399E-02
     20.00    0.253352E-03    0.884869E-02    0.107847E-02    0.777022E-02
     10.00    0.126676E-03    0.872201E-02    0.451456E-03    0.827055E-02 (used)
   ------------------------------------------------------------------------

         :::::::::::::::::::::::::::::::::::::::::::::::::::::
         ::                  THERMODYNAMIC                  ::
         :::::::::::::::::::::::::::::::::::::::::::::::::::::
         :: total free energy          -8.078080427766 Eh   ::
         ::.................................................::
         :: total energy               -8.086350981972 Eh   ::
         :: zero point energy           0.008595334422 Eh   ::
         :: G(RRHO) w/o ZPVE           -0.000324780216 Eh   ::
         :: G(RRHO) contrib.            0.008270554206 Eh   ::
         :::::::::::::::::::::::::::::::::::::::::::::::::::::

           -------------------------------------------------
          | TOTAL ENERGY               -8.086350981972 Eh   |
          | TOTAL ENTHALPY             -8.077628971534 Eh   |
          | TOTAL FREE ENERGY          -8.078080427766 Eh   |
          | GRADIENT NORM               0.000279505999 Eh/Î± |
          | HOMO-LUMO GAP               2.179422770035 eV   |
           -------------------------------------------------

 * finished run on 2020/05/12 at 11:43:50.769
