   * xtb version 6.2.2 (9d81278992624c895f80dd42a50cac0aa55982e2) compiled by '@Darwin' on 04/03/2020
          program call               : xtb --input H1C3N1_4_S_2.input H1C3N1_4_S_2.xyz --ohess --molden --namespace H1C3N1_4_S_2 output.out
          number of atoms            :                     5
          number of electrons        :                    18
          charge                     :                     0
          spin                       :                   1.0

   ID    Z sym.   atoms
    1    6 C      1, 3, 4
    2    7 N      2
    3    1 H      5

          :  Hamiltonian                  GFN2-xTB          :
 * total energy  :    -9.2364440 Eh     change        0.1595255E-08 Eh
 * total energy  :    -9.2754915 Eh     change       -0.3904753E-01 Eh
 * total energy  :    -9.3745677 Eh     change       -0.9907619E-01 Eh
 * total energy  :    -9.4258837 Eh     change       -0.5131595E-01 Eh
 * total energy  :    -9.4306277 Eh     change       -0.4744068E-02 Eh
 * total energy  :    -9.4337217 Eh     change       -0.3093923E-02 Eh
 * total energy  :    -9.4343079 Eh     change       -0.5862742E-03 Eh
 * total energy  :    -9.1509970 Eh     change        0.2833109E+00 Eh
 * total energy  :    -9.3970177 Eh     change       -0.2460207E+00 Eh
 * total energy  :    -9.4328790 Eh     change       -0.3586126E-01 Eh
 * total energy  :    -9.4438350 Eh     change       -0.1348564E-03 Eh
 * total energy  :    -9.4445587 Eh     change       -0.7236697E-03 Eh
 * total energy  :    -9.4448548 Eh     change       -0.2961567E-03 Eh
 * total energy  :    -9.4453816 Eh     change       -0.5267630E-03 Eh
 * total energy  :    -9.4454697 Eh     change       -0.8804545E-04 Eh
 * total energy  :    -9.4454959 Eh     change       -0.2628110E-04 Eh
 * total energy  :    -9.4455021 Eh     change       -0.6184802E-05 Eh
 * total energy  :    -9.4455046 Eh     change       -0.2505016E-05 Eh
 * total energy  :    -9.4455056 Eh     change       -0.9695200E-06 Eh
   *** GEOMETRY OPTIMIZATION CONVERGED AFTER 32 ITERATIONS ***

 final structure:
================
5
 xtb: 6.2.2 (9d81278992624c895f80dd42a50cac0aa55982e2)
C         0.93468612596981   -0.14764292540923   -0.60177586733735
N         0.08148304206398   -0.02966212417089    0.49645721206277
C        -0.36816062904789    0.79233839071201   -0.67169134641996
C        -0.61066676517604   -0.57847005394601   -0.71291253451812
H        -0.03734177380986   -0.03656328718587    1.48992253621266

          :  Hamiltonian                  GFN2-xTB          :
         :: gradient norm              0.000531357268 Eh/a0 ::
         :: HOMO-LUMO gap              6.399104704941 eV    ::
         :: SCC energy                -9.547507927547 Eh    ::
         :: -> dispersion             -0.002049691510 Eh    ::
         :: repulsion energy           0.102002309779 Eh    ::

    * Orbital Energies and Occupations

         #    Occupation            Energy/Eh            Energy/eV
      -------------------------------------------------------------
         1        2.0000           -0.7413527             -20.1732
         2        2.0000           -0.6501505             -17.6915
         3        2.0000           -0.6235566             -16.9678
         4        2.0000           -0.6001702             -16.3315
         5        2.0000           -0.5388606             -14.6631
         6        2.0000           -0.4706039             -12.8058
         7        2.0000           -0.4505921             -12.2612
         8        2.0000           -0.4261307             -11.5956
         9        1.0000           -0.4045347             -11.0079
        10        1.0000           -0.3796615             -10.3311 (HOMO)
        11                         -0.1444987              -3.9320 (LUMO)
        12                         -0.1439228              -3.9163
        13                         -0.1064052              -2.8954
        14                         -0.0896597              -2.4398
        15                          0.0849230               2.3109
        16                          0.3421550               9.3105
        17                          0.3503357               9.5331
      -------------------------------------------------------------
                  HL-Gap            0.2351628 Eh            6.3991 eV

     #   Z        covCN         q      C6AA      Î±(0)
     1   6 C      2.834    -0.127    31.235     9.159
     2   7 N      3.578     0.023    20.841     6.780
     3   6 C      2.847    -0.027    28.663     8.774
Molecule has the following symmetry elements: (sigma)
It seems to be the Cs point group
     4   6 C      2.847    -0.027    28.663     8.774
     5   1 H      0.861     0.158     1.349     1.820

Wiberg/Mayer (AO) data.
largest (>0.10) Wiberg bond orders for each atom
          total WBO             WBO to atom ...

molecular dipole:
                 x           y           z       tot (Debye)
 q only:       -0.183       0.013       0.681
   full:       -0.406       0.027       1.544       4.059

 projected vibrational frequencies (cm-1)
eigval :       -0.00    -0.00    -0.00     0.00     0.00     0.00
eigval :      331.08   626.63   684.22   717.68   822.43   913.36
eigval :     1232.76  1508.23  3525.34

   temp. (K)  partition function   enthalpy   heat capacity  entropy
                                   cal/mol     cal/K/mol   cal/K/mol   J/K/mol
  10.00  VIB   1.00                    0.000      0.000     -0.001
         ROT   77.6                   29.809      2.981     11.629
         INT   77.6                   29.809      2.981     11.628
         TR   0.217E+25               49.681      4.968     20.838
         TOT                          79.4904     7.9490    32.4657   135.8367

       T/K    H(0)-H(T)+PV         H(T)/Eh          T*S/Eh         G(T)/Eh
   ------------------------------------------------------------------------
    298.15    0.467332E-02    0.282791E-01    0.294999E-01   -0.122085E-02
    120.00    0.155243E-02    0.251582E-01    0.100249E-01    0.151333E-01
    100.00    0.128040E-02    0.248862E-01    0.810633E-02    0.167798E-01
     80.00    0.101739E-02    0.246232E-01    0.625049E-02    0.183727E-01
     60.00    0.760595E-03    0.243664E-01    0.446639E-02    0.199000E-01
     40.00    0.506714E-03    0.241125E-01    0.277179E-02    0.213407E-01
     20.00    0.253352E-03    0.238591E-01    0.121032E-02    0.226488E-01
     10.00    0.126676E-03    0.237324E-01    0.517375E-03    0.232151E-01 (used)
   ------------------------------------------------------------------------

         :::::::::::::::::::::::::::::::::::::::::::::::::::::
         ::                  THERMODYNAMIC                  ::
         :::::::::::::::::::::::::::::::::::::::::::::::::::::
         :: total free energy          -9.422290527743 Eh   ::
         ::.................................................::
         :: total energy               -9.445505592667 Eh   ::
         :: zero point energy           0.023605763562 Eh   ::
         :: G(RRHO) w/o ZPVE           -0.000390698638 Eh   ::
         :: G(RRHO) contrib.            0.023215064923 Eh   ::
         :::::::::::::::::::::::::::::::::::::::::::::::::::::

           -------------------------------------------------
          | TOTAL ENERGY               -9.445505592667 Eh   |
          | TOTAL ENTHALPY             -9.421773153089 Eh   |
          | TOTAL FREE ENERGY          -9.422290527743 Eh   |
          | GRADIENT NORM               0.000531384708 Eh/Î± |
          | HOMO-LUMO GAP               6.399104314155 eV   |
           -------------------------------------------------

 * finished run on 2020/05/12 at 11:44:51.981
