   * xtb version 6.2.2 (9d81278992624c895f80dd42a50cac0aa55982e2) compiled by '@Darwin' on 04/03/2020
          program call               : xtb --input H1C3N1_7_S_2.input H1C3N1_7_S_2.xyz --ohess --molden --namespace H1C3N1_7_S_2 output.out
          number of atoms            :                     5
          number of electrons        :                    18
          charge                     :                     0
          spin                       :                   1.0

   ID    Z sym.   atoms
    1    6 C      1-3
    2    7 N      4
    3    1 H      5

          :  Hamiltonian                  GFN2-xTB          :
 * total energy  :    -9.3784155 Eh     change        0.3683933E-09 Eh
 * total energy  :    -9.4831586 Eh     change       -0.1047431E+00 Eh
 * total energy  :    -9.4544722 Eh     change        0.2868642E-01 Eh
 * total energy  :    -9.5181240 Eh     change       -0.6365185E-01 Eh
 * total energy  :    -9.5207410 Eh     change       -0.2616922E-02 Eh
 * total energy  :    -9.5300862 Eh     change       -0.9345244E-02 Eh
 * total energy  :    -9.5312725 Eh     change       -0.1186322E-02 Eh
 * total energy  :    -9.5353545 Eh     change       -0.4082001E-02 Eh
 * total energy  :    -9.5336814 Eh     change        0.1673174E-02 Eh
 * total energy  :    -9.5376919 Eh     change       -0.4010499E-02 Eh
 * total energy  :    -9.5396129 Eh     change       -0.1128661E-02 Eh
 * total energy  :    -9.5403906 Eh     change       -0.7777005E-03 Eh
 * total energy  :    -9.5410381 Eh     change       -0.6474090E-03 Eh
 * total energy  :    -9.5408565 Eh     change        0.1815867E-03 Eh
 * total energy  :    -9.5412303 Eh     change       -0.3737876E-03 Eh
 * total energy  :    -9.5412561 Eh     change       -0.2583644E-04 Eh
 * total energy  :    -9.5412588 Eh     change       -0.2698036E-05 Eh
 * total energy  :    -9.5412656 Eh     change       -0.6788680E-05 Eh
 * total energy  :    -9.5412669 Eh     change       -0.1350120E-05 Eh
   *** GEOMETRY OPTIMIZATION CONVERGED AFTER 20 ITERATIONS ***

 final structure:
================
5
 xtb: 6.2.2 (9d81278992624c895f80dd42a50cac0aa55982e2)
C         2.02046263711163   -0.22642401850368   -0.03152040799812
C         0.81150909541012   -0.30685048638357   -0.06204344466288
C        -0.56572572176792    0.03548684257129    0.00223604364679
N        -1.58658473830254   -0.61180184542430   -0.17185580091829
H        -0.67966127245130    1.10958950774026    0.26318360993250

          :  Hamiltonian                  GFN2-xTB          :
         :: gradient norm              0.000622605303 Eh/a0 ::
         :: HOMO-LUMO gap              2.554371826357 eV    ::
         :: SCC energy                -9.746303042474 Eh    ::
         :: -> dispersion             -0.002097978240 Eh    ::
         :: repulsion energy           0.205036094544 Eh    ::

    * Orbital Energies and Occupations

         #    Occupation            Energy/Eh            Energy/eV
      -------------------------------------------------------------
         1        2.0000           -0.6827100             -18.5775
         2        2.0000           -0.6580532             -17.9065
         3        2.0000           -0.6086669             -16.5627
         4        2.0000           -0.5738740             -15.6159
         5        2.0000           -0.5232675             -14.2388
         6        2.0000           -0.4735672             -12.8864
         7        2.0000           -0.4566826             -12.4270
         8        2.0000           -0.4548277             -12.3765
         9        1.0000           -0.4269987             -11.6192
        10        1.0000           -0.3872929             -10.5388 (HOMO)
        11                         -0.2934216              -7.9844 (LUMO)
        12                         -0.2110155              -5.7420
        13                         -0.1471321              -4.0037
        14                          0.1332985               3.6272
        15                          0.1956896               5.3250
        16                          0.6479007              17.6303
        17                          1.1068299              30.1184
      -------------------------------------------------------------
                  HL-Gap            0.0938712 Eh            2.5544 eV

     #   Z        covCN         q      C6AA      Î±(0)
     1   6 C      0.982    -0.069    38.067    10.363
     2   6 C      1.965     0.006    30.918     8.980
     3   6 C      2.812     0.120    25.349     8.249
     4   7 N      0.915    -0.188    25.060     7.238
     5   1 H      0.921     0.131     1.527     1.933

Wiberg/Mayer (AO) data.
largest (>0.10) Wiberg bond orders for each atom
          total WBO             WBO to atom ...

molecular dipole:
                 x           y           z       tot (Debye)
 q only:        0.014       0.527       0.130
   full:        0.178       0.675       0.170       1.826

 projected vibrational frequencies (cm-1)
eigval :       -0.00    -0.00    -0.00     0.00     0.00     0.00
eigval :      194.83   225.47   497.53   704.88   943.50  1073.96
eigval :     1798.15  2076.47  2659.77
Molecule has the following symmetry elements: (sigma)
It seems to be the Cs point group

   temp. (K)  partition function   enthalpy   heat capacity  entropy
                                   cal/mol     cal/K/mol   cal/K/mol   J/K/mol
  10.00  VIB   1.00                    0.000      0.000     -0.009
         ROT   100.                   29.809      2.981     12.139
         INT   100.                   29.809      2.981     12.130
         TR   0.217E+25               49.681      4.968     20.838
         TOT                          79.4904     7.9490    32.9679   137.9376

       T/K    H(0)-H(T)+PV         H(T)/Eh          T*S/Eh         G(T)/Eh
   ------------------------------------------------------------------------
    298.15    0.527954E-02    0.284589E-01    0.309823E-01   -0.252341E-02
    120.00    0.169550E-02    0.248748E-01    0.103246E-01    0.145503E-01
    100.00    0.136764E-02    0.245470E-01    0.830528E-02    0.162417E-01
     80.00    0.105936E-02    0.242387E-01    0.636945E-02    0.178692E-01
     60.00    0.773083E-03    0.239524E-01    0.453046E-02    0.194220E-01
     40.00    0.507817E-03    0.236872E-01    0.280560E-02    0.208816E-01
     20.00    0.253353E-03    0.234327E-01    0.122646E-02    0.222062E-01
     10.00    0.126676E-03    0.233060E-01    0.525376E-03    0.227806E-01 (used)
   ------------------------------------------------------------------------

         :::::::::::::::::::::::::::::::::::::::::::::::::::::
         ::                  THERMODYNAMIC                  ::
         :::::::::::::::::::::::::::::::::::::::::::::::::::::
         :: total free energy          -9.518486294187 Eh   ::
         ::.................................................::
         :: total energy               -9.541266929991 Eh   ::
         :: zero point energy           0.023179336261 Eh   ::
         :: G(RRHO) w/o ZPVE           -0.000398700456 Eh   ::
         :: G(RRHO) contrib.            0.022780635804 Eh   ::
         :::::::::::::::::::::::::::::::::::::::::::::::::::::

           -------------------------------------------------
          | TOTAL ENERGY               -9.541266929991 Eh   |
          | TOTAL ENTHALPY             -9.517960917715 Eh   |
          | TOTAL FREE ENERGY          -9.518486294187 Eh   |
          | GRADIENT NORM               0.000621795686 Eh/Î± |
          | HOMO-LUMO GAP               2.554366695421 eV   |
           -------------------------------------------------

 * finished run on 2020/05/12 at 11:44:53.176
