   * xtb version 6.2.2 (9d81278992624c895f80dd42a50cac0aa55982e2) compiled by '@Darwin' on 04/03/2020
          program call               : xtb --input H1C1N1_1_S_2.input H1C1N1_1_S_2.xyz --ohess --molden --namespace H1C1N1_1_S_2 output.out
          number of atoms            :                     3
          number of electrons        :                    10
          charge                     :                     0
          spin                       :                   1.0

   ID    Z sym.   atoms
    1    6 C      1
    2    7 N      2
    3    1 H      3

          :  Hamiltonian                  GFN2-xTB          :
 * total energy  :    -5.2659379 Eh     change       -0.1690825E-10 Eh
 * total energy  :    -5.3060347 Eh     change       -0.4009683E-01 Eh
 * total energy  :    -5.3025081 Eh     change        0.3526595E-02 Eh
 * total energy  :    -5.3106010 Eh     change       -0.8092931E-02 Eh
 * total energy  :    -5.3108079 Eh     change       -0.2068303E-03 Eh
 * total energy  :    -5.3108184 Eh     change       -0.1053389E-04 Eh
 * total energy  :    -5.3108184 Eh     change       -0.2389023E-07 Eh
   *** GEOMETRY OPTIMIZATION CONVERGED AFTER 7 ITERATIONS ***

 final structure:
================
3
 xtb: 6.2.2 (9d81278992624c895f80dd42a50cac0aa55982e2)
C         1.01811184168687   -0.09729829896252    0.00000000000000
N        -0.11061182630357    0.38864884727062    0.00000000000000
H        -0.90750001538331   -0.29135054830810    0.00000000000000

          :  Hamiltonian                  GFN2-xTB          :
         :: gradient norm              0.000143143475 Eh/a0 ::
         :: HOMO-LUMO gap              1.018369902811 eV    ::
         :: SCC energy                -5.381024378682 Eh    ::
         :: -> dispersion             -0.000502560085 Eh    ::
         :: repulsion energy           0.070205947448 Eh    ::

    * Orbital Energies and Occupations

         #    Occupation            Energy/Eh            Energy/eV
      -------------------------------------------------------------
         1        2.0000           -0.6579947             -17.9049
         2        2.0000           -0.5711200             -15.5410
         3        2.0000           -0.5019686             -13.6593
         4        2.0000           -0.4930243             -13.4159
         5        1.0000           -0.4189721             -11.4008
         6        1.0000           -0.2903528              -7.9009 (HOMO)
         7                         -0.2529283              -6.8825 (LUMO)
         8                          0.0842193               2.2917
         9                          0.5693769              15.4935
      -------------------------------------------------------------
                  HL-Gap            0.0374244 Eh            1.0184 eV

     #   Z        covCN         q      C6AA      Î±(0)
     1   6 C      0.911    -0.028    36.280    10.080
     2   7 N      1.768    -0.155    25.114     7.420
     3   1 H      0.857     0.183     1.197     1.714

Wiberg/Mayer (AO) data.
largest (>0.10) Wiberg bond orders for each atom
          total WBO             WBO to atom ...

molecular dipole:
                 x           y           z       tot (Debye)
 q only:       -0.335      -0.210       0.000
   full:       -0.277      -0.377       0.000       1.189

 projected vibrational frequencies (cm-1)
eigval :       -0.00    -0.00    -0.00    -0.00     0.00     0.00
eigval :     1201.22  1823.95  2753.16

   temp. (K)  partition function   enthalpy   heat capacity  entropy
                                   cal/mol     cal/K/mol   cal/K/mol   J/K/mol
  10.00  VIB   1.00                    0.000      0.000     -0.000
         ROT   4.63                   29.809      2.981      6.028
         INT   4.63                   29.809      2.981      6.028
         TR   0.835E+24               49.681      4.968     18.943
         TOT                          79.4904     7.9490    24.9708   104.4779

       T/K    H(0)-H(T)+PV         H(T)/Eh          T*S/Eh         G(T)/Eh
   ------------------------------------------------------------------------
    298.15    0.379479E-02    0.169588E-01    0.247039E-01   -0.774513E-02
    120.00    0.152012E-02    0.146841E-01    0.855141E-02    0.613271E-02
    100.00    0.126676E-02    0.144308E-01    0.689529E-02    0.753548E-02
     80.00    0.101341E-02    0.141774E-01    0.529016E-02    0.888725E-02
     60.00    0.760056E-03    0.139241E-01    0.374903E-02    0.101750E-01
     40.00    0.506704E-03    0.136707E-01    0.229397E-02    0.113767E-01
     20.00    0.253352E-03    0.134174E-01    0.971427E-03    0.124459E-01
     10.00    0.126676E-03    0.132907E-01    0.397935E-03    0.128927E-01 (used)
   ------------------------------------------------------------------------

         :::::::::::::::::::::::::::::::::::::::::::::::::::::
         ::                  THERMODYNAMIC                  ::
         :::::::::::::::::::::::::::::::::::::::::::::::::::::
         :: total free energy          -5.297925687027 Eh   ::
         ::.................................................::
         :: total energy               -5.310818431204 Eh   ::
         :: zero point energy           0.013164003282 Eh   ::
         :: G(RRHO) w/o ZPVE           -0.000271259105 Eh   ::
         :: G(RRHO) contrib.            0.012892744177 Eh   ::
         :::::::::::::::::::::::::::::::::::::::::::::::::::::

           -------------------------------------------------
          | TOTAL ENERGY               -5.310818431204 Eh   |
          | TOTAL ENTHALPY             -5.297527751907 Eh   |
          | TOTAL FREE ENERGY          -5.297925687027 Eh   |
          | GRADIENT NORM               0.000143227408 Eh/Î± |
          | HOMO-LUMO GAP               1.018370349321 eV   |
           -------------------------------------------------

 * finished run on 2020/05/12 at 11:44:25.112
