   * xtb version 6.2.2 (9d81278992624c895f80dd42a50cac0aa55982e2) compiled by '@Darwin' on 04/03/2020
          program call               : xtb --input C5_9_S_2.input C5_9_S_2.xyz --ohess --molden --namespace C5_9_S_2 output.out
          number of atoms            :                     5
          number of electrons        :                    20
          charge                     :                     0
          spin                       :                   1.0

   ID    Z sym.   atoms
    1    6 C      1-5

          :  Hamiltonian                  GFN2-xTB          :
 * total energy  :   -10.0850664 Eh     change       -0.3305942E-09 Eh
 * total energy  :   -10.1205579 Eh     change       -0.3549143E-01 Eh
 * total energy  :   -10.1628543 Eh     change       -0.4229642E-01 Eh
 * total energy  :   -10.1772923 Eh     change       -0.1443806E-01 Eh
 * total energy  :   -10.1839771 Eh     change       -0.6684730E-02 Eh
 * total energy  :   -10.1890539 Eh     change       -0.5076807E-02 Eh
 * total energy  :   -10.1896169 Eh     change       -0.5630495E-03 Eh
 * total energy  :   -10.1896363 Eh     change       -0.1938639E-04 Eh
 * total energy  :   -10.1896364 Eh     change       -0.1030545E-06 Eh
   *** GEOMETRY OPTIMIZATION CONVERGED AFTER 9 ITERATIONS ***

 final structure:
================
5
 xtb: 6.2.2 (9d81278992624c895f80dd42a50cac0aa55982e2)
C        -1.29799367760911   -0.63597519727238    0.29284169198402
C        -0.00001692502711   -0.00003687794134   -0.00016594998544
C         1.29800338146319    0.63601046647159   -0.29268822752893
C        -1.32752152050778    0.64239432171982   -0.01828749989896
C         1.32752974168081   -0.64239371297769    0.01829998542931

          :  Hamiltonian                  GFN2-xTB          :
         :: gradient norm              0.000450135983 Eh/a0 ::
         :: HOMO-LUMO gap              3.229990238511 eV    ::
         :: SCC energy               -10.374982318627 Eh    ::
         :: -> dispersion             -0.002848308020 Eh    ::
         :: repulsion energy           0.185345849780 Eh    ::

    * Orbital Energies and Occupations

         #    Occupation            Energy/Eh            Energy/eV
      -------------------------------------------------------------
         1        2.0000           -0.7325065             -19.9325
         2        2.0000           -0.7122090             -19.3802
         3        2.0000           -0.6048041             -16.4576
         4        2.0000           -0.5872615             -15.9802
         5        2.0000           -0.5582197             -15.1899
         6        2.0000           -0.5243921             -14.2694
         7        2.0000           -0.5176257             -14.0853
         8        2.0000           -0.4759492             -12.9512
         9        1.9998           -0.4346640             -11.8278
        10        1.0002           -0.4186713             -11.3926
        11        1.0000           -0.4112969             -11.1920 (HOMO)
        12                         -0.2925970              -7.9620 (LUMO)
        13                         -0.2767923              -7.5319
        14                         -0.2674257              -7.2770
        15                         -0.2385736              -6.4919
        16                         -0.0140924              -0.3835
        17                          0.0683724               1.8605
        18                          0.3928255              10.6893
        19                          0.4892117              13.3121
        20                          0.5785302              15.7426
      -------------------------------------------------------------
                  HL-Gap            0.1186999 Eh            3.2300 eV

     #   Z        covCN         q      C6AA      Î±(0)
     1   6 C      1.959    -0.043    32.232     9.168
     2   6 C      3.913     0.173    17.785     5.994
     3   6 C      1.959    -0.043    32.231     9.168
     4   6 C      1.959    -0.043    32.233     9.168
     5   6 C      1.959    -0.043    32.233     9.168

Wiberg/Mayer (AO) data.
largest (>0.10) Wiberg bond orders for each atom
          total WBO             WBO to atom ...

molecular dipole:
                 x           y           z       tot (Debye)
 q only:       -0.000       0.000      -0.000
   full:       -0.000       0.000      -0.000       0.000

 projected vibrational frequencies (cm-1)
eigval :       -0.00    -0.00    -0.00     0.00     0.00     0.00
eigval :     -687.41  -326.90   232.91   319.87   424.18   758.30
eigval :      931.20  1701.21  1810.62

   temp. (K)  partition function   enthalpy   heat capacity  entropy
                                   cal/mol     cal/K/mol   cal/K/mol   J/K/mol
  10.00  VIB   1.00                    0.000      0.000     -0.004
         ROT   50.0                   29.809      2.981     10.757
         INT   50.0                   29.809      2.981     10.752
         TR   0.277E+25               49.681      4.968     21.322
         TOT                          79.4904     7.9490    32.0743   134.1987

       T/K    H(0)-H(T)+PV         H(T)/Eh          T*S/Eh         G(T)/Eh
   ------------------------------------------------------------------------
    298.15    0.511301E-02    0.191882E-01    0.301608E-01   -0.109726E-01
    120.00    0.163402E-02    0.157092E-01    0.100596E-01    0.564956E-02
    100.00    0.132447E-02    0.153996E-01    0.810116E-02    0.729846E-02
     80.00    0.103533E-02    0.151105E-01    0.622322E-02    0.888727E-02
     60.00    0.764808E-03    0.148400E-01    0.443429E-02    0.104057E-01
     40.00    0.506963E-03    0.145821E-01    0.274732E-02    0.118348E-01
     20.00    0.253352E-03    0.143285E-01    0.119789E-02    0.131306E-01
     10.00    0.126676E-03    0.142018E-01    0.511136E-03    0.136907E-01 (used)
   ------------------------------------------------------------------------

         :::::::::::::::::::::::::::::::::::::::::::::::::::::
         ::                  THERMODYNAMIC                  ::
         :::::::::::::::::::::::::::::::::::::::::::::::::::::
         :: total free energy         -10.175945731927 Eh   ::
         ::.................................................::
         :: total energy              -10.189636426274 Eh   ::
         :: zero point energy           0.014075154184 Eh   ::
         :: G(RRHO) w/o ZPVE           -0.000384459836 Eh   ::
         :: G(RRHO) contrib.            0.013690694348 Eh   ::
         :::::::::::::::::::::::::::::::::::::::::::::::::::::

           -------------------------------------------------
          | TOTAL ENERGY              -10.189636426274 Eh   |
          | TOTAL ENTHALPY            -10.175434596075 Eh   |
          | TOTAL FREE ENERGY         -10.175945731927 Eh   |
          | GRADIENT NORM               0.000450107982 Eh/Î± |
          | HOMO-LUMO GAP               3.229988772727 eV   |
           -------------------------------------------------

 * finished run on 2020/05/12 at 11:44:35.559
