   * xtb version 6.2.2 (9d81278992624c895f80dd42a50cac0aa55982e2) compiled by '@Darwin' on 04/03/2020
          program call               : xtb --input C4N1_10_S_3.input C4N1_10_S_3.xyz --ohess --molden --namespace C4N1_10_S_3 output.out
          number of atoms            :                     5
          number of electrons        :                    21
          charge                     :                     0
          spin                       :                   1.5

   ID    Z sym.   atoms
    1    6 C      1, 3-5
    2    7 N      2

          :  Hamiltonian                  GFN2-xTB          :
 * total energy  :   -10.7959157 Eh     change        0.3690914E-09 Eh
 * total energy  :   -10.8304543 Eh     change       -0.3453859E-01 Eh
 * total energy  :   -10.4518619 Eh     change        0.3785924E+00 Eh
 * total energy  :   -10.8546116 Eh     change       -0.4027497E+00 Eh
 * total energy  :   -10.8744153 Eh     change       -0.1980377E-01 Eh
 * total energy  :   -10.9281463 Eh     change       -0.5373095E-01 Eh
 * total energy  :   -10.6004598 Eh     change        0.3276865E+00 Eh
 * total energy  :   -10.9118566 Eh     change       -0.3113968E+00 Eh
 * total energy  :   -10.9253200 Eh     change       -0.1346342E-01 Eh
 * total energy  :   -10.5653793 Eh     change        0.3599407E+00 Eh
 * total energy  :   -10.9140990 Eh     change        0.2257055E-01 Eh
 * total energy  :   -10.9401051 Eh     change       -0.2600610E-01 Eh
 * total energy  :   -10.9408977 Eh     change       -0.7926070E-03 Eh
 * total energy  :   -10.9415374 Eh     change       -0.6397097E-03 Eh
 * total energy  :   -10.9419781 Eh     change       -0.4406455E-03 Eh
 * total energy  :   -10.9420139 Eh     change       -0.3579456E-04 Eh
 * total energy  :   -10.9420528 Eh     change       -0.3890097E-04 Eh
 * total energy  :   -10.9420586 Eh     change       -0.5821487E-05 Eh
 * total energy  :   -10.9420603 Eh     change       -0.1706525E-05 Eh
   *** GEOMETRY OPTIMIZATION CONVERGED AFTER 27 ITERATIONS ***

 final structure:
================
5
 xtb: 6.2.2 (9d81278992624c895f80dd42a50cac0aa55982e2)
C        -1.24763053554879    0.73983133785531   -0.00705211038320
N         0.02280557288095   -0.00529134150692    0.08588179747703
C         1.34053226955049   -0.06921067219291   -0.70531261101618
C        -1.34259326163997   -0.55402314794187   -0.03349512295594
C         1.22688495475733   -0.11130617621360    0.65997804687829

          :  Hamiltonian                  GFN2-xTB          :
         :: gradient norm              0.000633690451 Eh/a0 ::
         :: HOMO-LUMO gap              3.264569285803 eV    ::
         :: SCC energy               -11.091084038696 Eh    ::
         :: -> dispersion             -0.002976226066 Eh    ::
         :: repulsion energy           0.149023690467 Eh    ::

    * Orbital Energies and Occupations

         #    Occupation            Energy/Eh            Energy/eV
      -------------------------------------------------------------
         1        2.0000           -0.7490437             -20.3825
         2        2.0000           -0.7441774             -20.2501
         3        2.0000           -0.6339896             -17.2517
         4        2.0000           -0.6267159             -17.0538
         5        2.0000           -0.6020551             -16.3828
         6        2.0000           -0.5420487             -14.7499
         7        2.0000           -0.5086009             -13.8397
         8        2.0000           -0.5077661             -13.8170
         9        1.9999           -0.4388286             -11.9411
        10        1.0001           -0.4218986             -11.4804
        11        1.0000           -0.4105654             -11.1721
        12        1.0000           -0.4089298             -11.1275 (HOMO)
        13                         -0.2889590              -7.8630 (LUMO)
        14                         -0.2743261              -7.4648
        15                         -0.1731557              -4.7118
        16                         -0.1001884              -2.7263
        17                         -0.0879030              -2.3920
        18                          0.2088823               5.6840
        19                          0.4615421              12.5592
        20                          0.5575168              15.1708
      -------------------------------------------------------------
                  HL-Gap            0.1199707 Eh            3.2646 eV

     #   Z        covCN         q      C6AA      Î±(0)
     1   6 C      1.887    -0.025    31.792     9.107
     2   7 N      3.620     0.170    18.398     6.371
Molecule has the following symmetry elements: (sigma)
It seems to be the Cs point group
     3   6 C      1.879    -0.107    34.109     9.433
     4   6 C      1.887    -0.026    31.803     9.108
     5   6 C      1.891    -0.011    31.421     9.053

Wiberg/Mayer (AO) data.
largest (>0.10) Wiberg bond orders for each atom
          total WBO             WBO to atom ...

molecular dipole:
                 x           y           z       tot (Debye)
 q only:       -0.167       0.006       0.158
   full:       -0.318       0.003       0.408       1.314

 projected vibrational frequencies (cm-1)
eigval :       -0.00    -0.00     0.00     0.00     0.00     0.00
eigval :      103.24   316.66   323.31   555.14   583.41   767.81
eigval :     1313.75  1541.16  1775.69

   temp. (K)  partition function   enthalpy   heat capacity  entropy
                                   cal/mol     cal/K/mol   cal/K/mol   J/K/mol
  10.00  VIB   1.00                    0.000      0.000     -0.031
         ROT   198.                   29.809      2.981     13.489
         INT   198.                   29.809      2.981     13.458
         TR   0.290E+25               49.681      4.968     21.419
         TOT                          79.4905     7.9492    34.8771   145.9257

       T/K    H(0)-H(T)+PV         H(T)/Eh          T*S/Eh         G(T)/Eh
   ------------------------------------------------------------------------
    298.15    0.575708E-02    0.223426E-01    0.328592E-01   -0.105166E-01
    120.00    0.178262E-02    0.183681E-01    0.108643E-01    0.750377E-02
    100.00    0.143547E-02    0.180210E-01    0.873859E-02    0.928236E-02
     80.00    0.110995E-02    0.176954E-01    0.670159E-02    0.109938E-01
     60.00    0.804623E-03    0.173901E-01    0.476365E-02    0.126265E-01
     40.00    0.518496E-03    0.171040E-01    0.294428E-02    0.141597E-01
     20.00    0.253632E-03    0.168391E-01    0.128864E-02    0.155505E-01
     10.00    0.126676E-03    0.167122E-01    0.555802E-03    0.161564E-01 (used)
   ------------------------------------------------------------------------

         :::::::::::::::::::::::::::::::::::::::::::::::::::::
         ::                  THERMODYNAMIC                  ::
         :::::::::::::::::::::::::::::::::::::::::::::::::::::
         :: total free energy         -10.925903941329 Eh   ::
         ::.................................................::
         :: total energy              -10.942060297024 Eh   ::
         :: zero point energy           0.016585481232 Eh   ::
         :: G(RRHO) w/o ZPVE           -0.000429125537 Eh   ::
         :: G(RRHO) contrib.            0.016156355695 Eh   ::
         :::::::::::::::::::::::::::::::::::::::::::::::::::::

           -------------------------------------------------
          | TOTAL ENERGY              -10.942060297024 Eh   |
          | TOTAL ENTHALPY            -10.925348139609 Eh   |
          | TOTAL FREE ENERGY         -10.925903941329 Eh   |
          | GRADIENT NORM               0.000633919141 Eh/Î± |
          | HOMO-LUMO GAP               3.264569150107 eV   |
           -------------------------------------------------

 * finished run on 2020/05/12 at 11:44:02.223
