 Gaussian 16, Revision B.01,
 Gaussian 16:  ES64L-G16RevB.01 20-Dec-2017

 ------------------------
 #P ROCCSD(T)/aug-cc-pvtz
 ------------------------

 -----
 Title
 -----
 Symbolic Z-matrix:
 Charge =  0 Multiplicity = 3

                         Standard orientation:
 ---------------------------------------------------------------------
 Center     Atomic      Atomic             Coordinates (Angstroms)
 Number     Number       Type             X           Y           Z
 ---------------------------------------------------------------------
      1         14           0        0.000000    0.000000    0.000000
 ---------------------------------------------------------------------

 SCF Done:  E(ROHF) =  -288.852357452     A.U. after   10 cycles
 E2 =    -0.6099929844D-01 EUMP2 =    -0.28891335675038D+03
 CCSD(T)
 CCSD(T)= -0.28893378292D+03

 Unable to determine electronic state:  an orbital has unidentified symmetry.
 Alpha  occ. eigenvalues --  -68.81833  -6.16307  -4.26961  -4.26961  -4.26044
 Alpha  occ. eigenvalues --   -0.61889  -0.29721  -0.29721
 Alpha virt. eigenvalues --   -0.01684   0.06605   0.07075   0.07075   0.08056
 Alpha virt. eigenvalues --    0.14812   0.14812   0.15027   0.15027   0.15111
 Alpha virt. eigenvalues --    0.43439   0.43439   0.44015   0.44015   0.44455

 Mulliken charges and spin densities:
               1          2
     1  Si  -0.000000   2.000000
 Sum of Mulliken charges =  -0.00000   2.00000

 Dipole moment (field-independent basis, Debye):
    X=              0.0000    Y=              0.0000    Z=              0.0000  Tot=              0.0000
 Quadrupole moment (field-independent basis, Debye-Ang):
   XX=            -16.1728   YY=            -11.1798   ZZ=            -16.1728
   XY=             -0.0000   XZ=              0.0000   YZ=              0.0000

 MP2-0=-288.9133568\MP4SDQ=-288.9307082\CCSD=-288.9310542\CCSD(T)=-288.
 Normal termination of Gaussian 16 at Mon Oct  5 21:28:24 2020.
