   * xtb version 6.2.2 (9d81278992624c895f80dd42a50cac0aa55982e2) compiled by '@Darwin' on 04/03/2020
          program call               : xtb --input C5_2_S_0.input C5_2_S_0.xyz --ohess --molden --namespace C5_2_S_0 output.out
          number of atoms            :                     5
          number of electrons        :                    20
          charge                     :                     0
          spin                       :                   0.0

   ID    Z sym.   atoms
    1    6 C      1-5

          :  Hamiltonian                  GFN2-xTB          :
 * total energy  :   -10.0726362 Eh     change        0.3838156E-09 Eh
 * total energy  :   -10.2283995 Eh     change       -0.1557632E+00 Eh
 * total energy  :   -10.2729766 Eh     change       -0.4457713E-01 Eh
 * total energy  :   -10.3060920 Eh     change       -0.3311542E-01 Eh
 * total energy  :   -10.3041578 Eh     change        0.1934161E-02 Eh
 * total energy  :   -10.3176750 Eh     change       -0.1351710E-01 Eh
 * total energy  :   -10.3095714 Eh     change        0.8103518E-02 Eh
 * total energy  :   -10.3213514 Eh     change       -0.1177997E-01 Eh
 * total energy  :   -10.3082455 Eh     change        0.1310590E-01 Eh
 * total energy  :   -10.3230941 Eh     change       -0.1484863E-01 Eh
 * total energy  :   -10.3285075 Eh     change       -0.5316175E-04 Eh
 * total energy  :   -10.3284846 Eh     change        0.2294979E-04 Eh
 * total energy  :   -10.3285708 Eh     change       -0.8624442E-04 Eh
 * total energy  :   -10.3286236 Eh     change       -0.5281068E-04 Eh
 * total energy  :   -10.3286992 Eh     change       -0.7562811E-04 Eh
 * total energy  :   -10.3287250 Eh     change       -0.2573442E-04 Eh
 * total energy  :   -10.3287336 Eh     change       -0.8639454E-05 Eh
 * total energy  :   -10.3287338 Eh     change       -0.2007294E-06 Eh
 * total energy  :   -10.3287344 Eh     change       -0.5659376E-06 Eh
   *** GEOMETRY OPTIMIZATION CONVERGED AFTER 30 ITERATIONS ***

 final structure:
================
5
 xtb: 6.2.2 (9d81278992624c895f80dd42a50cac0aa55982e2)
C         1.23556583246563    0.05913773438060   -0.59292861188655
C        -0.00030189750069    0.00327935297848   -0.24246175845426
C        -1.23581261873144   -0.05696916583179    0.10782440702652
C         2.46206074880733    0.11476352855869   -0.93844791435003
C        -2.46151206504089   -0.12021145008599    0.45495987766429

          :  Hamiltonian                  GFN2-xTB          :
         :: gradient norm              0.000348305410 Eh/a0 ::
         :: HOMO-LUMO gap              1.577619368530 eV    ::
         :: SCC energy               -10.598866794383 Eh    ::
         :: -> dispersion             -0.002738289538 Eh    ::
         :: repulsion energy           0.270133757179 Eh    ::

    * Orbital Energies and Occupations

         #    Occupation            Energy/Eh            Energy/eV
      -------------------------------------------------------------
         1        2.0000           -0.6928756             -18.8541
         2        2.0000           -0.6801916             -18.5090
         3        2.0000           -0.6590180             -17.9328
         4        2.0000           -0.6136627             -16.6986
         5        2.0000           -0.5388649             -14.6633
         6        2.0000           -0.5388647             -14.6633
         7        2.0000           -0.4709057             -12.8140
         8        2.0000           -0.4709053             -12.8140
         9        2.0000           -0.4636644             -12.6170
        10        2.0000           -0.4471169             -12.1667 (HOMO)
        11                         -0.3891406             -10.5891 (LUMO)
        12                         -0.3891406             -10.5891
        13                         -0.2441798              -6.6445
        14                         -0.2441795              -6.6445
        15                         -0.1167894              -3.1780
        16                         -0.1167854              -3.1779
        17                          0.0893397               2.4311
        18                          0.4585024              12.4765
        19                          0.9480836              25.7987
        20                          1.4163180              38.5400
      -------------------------------------------------------------
                  HL-Gap            0.0579763 Eh            1.5776 eV

     #   Z        covCN         q      C6AA      Î±(0)
     1   6 C      1.963     0.048    29.858     8.824
     2   6 C      1.964     0.112    28.309     8.592
     3   6 C      1.963     0.048    29.858     8.824
     4   6 C      0.982    -0.103    39.220    10.520
     5   6 C      0.982    -0.103    39.219    10.519

Wiberg/Mayer (AO) data.
largest (>0.10) Wiberg bond orders for each atom
          total WBO             WBO to atom ...

molecular dipole:
                 x           y           z       tot (Debye)
 q only:       -0.000       0.002      -0.000
   full:       -0.001       0.005      -0.001       0.014

 projected vibrational frequencies (cm-1)
eigval :       -0.00    -0.00    -0.00    -0.00     0.00     0.00
eigval :      100.77   205.88   211.47   487.73   492.00   821.85
eigval :     1551.79  1994.74  2155.78

   temp. (K)  partition function   enthalpy   heat capacity  entropy
                                   cal/mol     cal/K/mol   cal/K/mol   J/K/mol
  10.00  VIB   1.00                    0.000      0.000     -0.039
         ROT   1.79                   29.809      2.981      4.133
         INT   1.79                   29.809      2.981      4.094
         TR   0.277E+25               49.681      4.968     21.322
         TOT                          79.4905     7.9493    25.4160   106.3405

       T/K    H(0)-H(T)+PV         H(T)/Eh          T*S/Eh         G(T)/Eh
   ------------------------------------------------------------------------
    298.15    0.614521E-02    0.244207E-01    0.292304E-01   -0.480971E-02
    120.00    0.189823E-02    0.201737E-01    0.922722E-02    0.109465E-01
    100.00    0.151083E-02    0.197863E-01    0.733782E-02    0.124485E-01
     80.00    0.114936E-02    0.194248E-01    0.554910E-02    0.138757E-01
     60.00    0.817948E-03    0.190934E-01    0.387707E-02    0.152163E-01
     40.00    0.520330E-03    0.187958E-01    0.234423E-02    0.164516E-01
     20.00    0.253679E-03    0.185291E-01    0.987370E-03    0.175418E-01
     10.00    0.126676E-03    0.184021E-01    0.405030E-03    0.179971E-01 (used)
   ------------------------------------------------------------------------

         :::::::::::::::::::::::::::::::::::::::::::::::::::::
         ::                  THERMODYNAMIC                  ::
         :::::::::::::::::::::::::::::::::::::::::::::::::::::
         :: total free energy         -10.310737283313 Eh   ::
         ::.................................................::
         :: total energy              -10.328734389975 Eh   ::
         :: zero point energy           0.018275460074 Eh   ::
         :: G(RRHO) w/o ZPVE           -0.000278353412 Eh   ::
         :: G(RRHO) contrib.            0.017997106661 Eh   ::
         :::::::::::::::::::::::::::::::::::::::::::::::::::::

           -------------------------------------------------
          | TOTAL ENERGY              -10.328734389975 Eh   |
          | TOTAL ENTHALPY            -10.310332253653 Eh   |
          | TOTAL FREE ENERGY         -10.310737283313 Eh   |
          | GRADIENT NORM               0.000346124016 Eh/Î± |
          | HOMO-LUMO GAP               1.577615120704 eV   |
           -------------------------------------------------

 * finished run on 2020/05/12 at 11:44:31.806
