   * xtb version 6.2.2 (9d81278992624c895f80dd42a50cac0aa55982e2) compiled by '@Darwin' on 04/03/2020
          program call               : xtb --input H1N1O1_0_S_0.input H1N1O1_0_S_0.xyz --ohess --molden --namespace H1N1O1_0_S_0 output.out
          number of atoms            :                     3
          number of electrons        :                    12
          charge                     :                     0
          spin                       :                   0.0

   ID    Z sym.   atoms
    1    8 O      1
    2    7 N      2
    3    1 H      3

          :  Hamiltonian                  GFN2-xTB          :
 * total energy  :    -7.2935518 Eh     change        0.2907541E-10 Eh
 * total energy  :    -7.2981427 Eh     change       -0.4590904E-02 Eh
 * total energy  :    -7.3000803 Eh     change       -0.1937622E-02 Eh
 * total energy  :    -7.3002466 Eh     change       -0.1662609E-03 Eh
 * total energy  :    -7.3002583 Eh     change       -0.1173714E-04 Eh
 * total energy  :    -7.3002594 Eh     change       -0.1052311E-05 Eh
   *** GEOMETRY OPTIMIZATION CONVERGED AFTER 6 ITERATIONS ***

 final structure:
================
3
 xtb: 6.2.2 (9d81278992624c895f80dd42a50cac0aa55982e2)
O        -0.13273564251500    0.39329256350199    0.00000000000000
N         1.01652732613301   -0.12852273955525    0.00000000000000
H        -0.88379168361801   -0.26476982394674    0.00000000000000

          :  Hamiltonian                  GFN2-xTB          :
         :: gradient norm              0.000185384830 Eh/a0 ::
         :: HOMO-LUMO gap              0.067302428408 eV    ::
         :: SCC energy                -7.323106224409 Eh    ::
         :: -> dispersion             -0.000360869195 Eh    ::
         :: repulsion energy           0.022846854997 Eh    ::

    * Orbital Energies and Occupations

         #    Occupation            Energy/Eh            Energy/eV
      -------------------------------------------------------------
         1        2.0000           -0.7707260             -20.9725
         2        2.0000           -0.6834211             -18.5968
         3        2.0000           -0.6188116             -16.8387
         4        2.0000           -0.5882994             -16.0084
         5        2.0000           -0.4714851             -12.8298
         6        1.5722           -0.3556189              -9.6769 (HOMO)
         7        0.4278           -0.3531456              -9.6096 (LUMO)
         8                          0.0208962               0.5686
         9                          0.2033105               5.5324
      -------------------------------------------------------------
                  HL-Gap            0.0024733 Eh            0.0673 eV

     #   Z        covCN         q      C6AA      Î±(0)
     1   8 O      1.722    -0.138    16.387     5.466
     2   7 N      0.922    -0.168    24.569     7.163
     3   1 H      0.799     0.306     0.704     1.319

Wiberg/Mayer (AO) data.
largest (>0.10) Wiberg bond orders for each atom
          total WBO             WBO to atom ...

molecular dipole:
                 x           y           z       tot (Debye)
 q only:       -0.799      -0.215       0.000
   full:       -1.165      -0.287       0.000       3.050

 projected vibrational frequencies (cm-1)
eigval :       -0.00    -0.00     0.00     0.00     0.00     0.00
eigval :     1194.64  1297.11  2834.42

   temp. (K)  partition function   enthalpy   heat capacity  entropy
                                   cal/mol     cal/K/mol   cal/K/mol   J/K/mol
  10.00  VIB   1.00                    0.000      0.000     -0.000
         ROT   5.38                   29.809      2.981      6.324
         INT   5.38                   29.809      2.981      6.324
         TR   0.103E+25               49.681      4.968     19.353
         TOT                          79.4904     7.9490    25.6773   107.4340

       T/K    H(0)-H(T)+PV         H(T)/Eh          T*S/Eh         G(T)/Eh
   ------------------------------------------------------------------------
    298.15    0.380531E-02    0.159392E-01    0.250519E-01   -0.911267E-02
    120.00    0.152012E-02    0.136540E-01    0.868653E-02    0.496751E-02
    100.00    0.126676E-02    0.134007E-01    0.700788E-02    0.639280E-02
     80.00    0.101341E-02    0.131473E-01    0.538024E-02    0.776709E-02
     60.00    0.760056E-03    0.128940E-01    0.381659E-02    0.907738E-02
     40.00    0.506704E-03    0.126406E-01    0.233901E-02    0.103016E-01
     20.00    0.253352E-03    0.123873E-01    0.993946E-03    0.113933E-01
     10.00    0.126676E-03    0.122606E-01    0.409195E-03    0.118514E-01 (used)
   ------------------------------------------------------------------------

         :::::::::::::::::::::::::::::::::::::::::::::::::::::
         ::                  THERMODYNAMIC                  ::
         :::::::::::::::::::::::::::::::::::::::::::::::::::::
         :: total free energy          -7.288407968752 Eh   ::
         ::.................................................::
         :: total energy               -7.300259369405 Eh   ::
         :: zero point energy           0.012133919235 Eh   ::
         :: G(RRHO) w/o ZPVE           -0.000282518582 Eh   ::
         :: G(RRHO) contrib.            0.011851400653 Eh   ::
         :::::::::::::::::::::::::::::::::::::::::::::::::::::

           -------------------------------------------------
          | TOTAL ENERGY               -7.300259369405 Eh   |
          | TOTAL ENTHALPY             -7.287998774154 Eh   |
          | TOTAL FREE ENERGY          -7.288407968752 Eh   |
          | GRADIENT NORM               0.000185074126 Eh/Î± |
          | HOMO-LUMO GAP               0.067301045294 eV   |
           -------------------------------------------------

 * finished run on 2020/05/12 at 11:44:43.966
