   * xtb version 6.2.2 (9d81278992624c895f80dd42a50cac0aa55982e2) compiled by '@Darwin' on 04/03/2020
          program call               : xtb --input C2O1_2_S_2.input C2O1_2_S_2.xyz --ohess --molden --namespace C2O1_2_S_2 output.out
          number of atoms            :                     3
          number of electrons        :                    14
          charge                     :                     0
          spin                       :                   1.0

   ID    Z sym.   atoms
    1    6 C      1, 2
    2    8 O      3

          :  Hamiltonian                  GFN2-xTB          :
 * total energy  :    -8.0135946 Eh     change        0.2204459E-11 Eh
 * total energy  :    -8.0292513 Eh     change       -0.1565670E-01 Eh
 * total energy  :    -8.0302907 Eh     change       -0.1039415E-02 Eh
 * total energy  :    -8.0312747 Eh     change       -0.9840627E-03 Eh
 * total energy  :    -8.0312936 Eh     change       -0.1882845E-04 Eh
 * total energy  :    -8.0312937 Eh     change       -0.1407766E-06 Eh
   *** GEOMETRY OPTIMIZATION CONVERGED AFTER 6 ITERATIONS ***

 final structure:
================
3
 xtb: 6.2.2 (9d81278992624c895f80dd42a50cac0aa55982e2)
C         0.76750545040235   -0.12246125126307    0.06616240086185
C        -0.23149269144762    0.74457015480069   -0.02174518022951
O        -0.53601175895473   -0.62210890353763   -0.04441622063234

          :  Hamiltonian                  GFN2-xTB          :
         :: gradient norm              0.000315620672 Eh/a0 ::
         :: HOMO-LUMO gap              2.876310853607 eV    ::
         :: SCC energy                -8.097680404024 Eh    ::
         :: -> dispersion             -0.000796115025 Eh    ::
         :: repulsion energy           0.066386691627 Eh    ::

    * Orbital Energies and Occupations

         #    Occupation            Energy/Eh            Energy/eV
      -------------------------------------------------------------
         1        2.0000           -0.7915974             -21.5405
         2        2.0000           -0.6880497             -18.7228
         3        2.0000           -0.6462428             -17.5852
         4        2.0000           -0.6089026             -16.5691
         5        2.0000           -0.5568187             -15.1518
         6        2.0000           -0.4962307             -13.5031
         7        1.0000           -0.4432500             -12.0614
         8        1.0000           -0.4114259             -11.1955 (HOMO)
         9                         -0.3057234              -8.3192 (LUMO)
        10                         -0.1069084              -2.9091
        11                          0.0255891               0.6963
        12                          0.4758425              12.9483
      -------------------------------------------------------------
                  HL-Gap            0.1057024 Eh            2.8763 eV

     #   Z        covCN         q      C6AA      Î±(0)
     1   6 C      1.831     0.075    29.285     8.743
     2   6 C      1.831     0.075    29.285     8.743
     3   8 O      1.702    -0.149    16.553     5.493

Wiberg/Mayer (AO) data.
largest (>0.10) Wiberg bond orders for each atom
          total WBO             WBO to atom ...

molecular dipole:
                 x           y           z       tot (Debye)
 q only:        0.227       0.263       0.019
   full:       -0.059      -0.069      -0.005       0.232

 projected vibrational frequencies (cm-1)
eigval :       -0.00    -0.00    -0.00     0.00     0.00     0.00
eigval :      165.76  1160.18  1703.27

   temp. (K)  partition function   enthalpy   heat capacity  entropy
                                   cal/mol     cal/K/mol   cal/K/mol   J/K/mol
  10.00  VIB   1.00                    0.000      0.000     -0.008
         ROT   14.6                   29.809      2.981      8.311
         INT   14.6                   29.809      2.981      8.303
         TR   0.150E+25               49.681      4.968     20.113
         TOT                          79.4904     7.9490    28.4155   118.8904

       T/K    H(0)-H(T)+PV         H(T)/Eh          T*S/Eh         G(T)/Eh
   ------------------------------------------------------------------------
    298.15    0.441497E-02    0.113160E-01    0.275284E-01   -0.162124E-01
    120.00    0.164006E-02    0.854111E-02    0.938854E-02   -0.847429E-03
    100.00    0.134338E-02    0.824442E-02    0.755356E-02    0.690866E-03
     80.00    0.105378E-02    0.795482E-02    0.578460E-02    0.217022E-02
     60.00    0.774513E-03    0.767556E-02    0.409771E-02    0.357785E-02
     40.00    0.508653E-03    0.740970E-02    0.251652E-02    0.489318E-02
     20.00    0.253357E-03    0.715440E-02    0.108140E-02    0.607300E-02
     10.00    0.126676E-03    0.702772E-02    0.452830E-03    0.657489E-02 (used)
   ------------------------------------------------------------------------

         :::::::::::::::::::::::::::::::::::::::::::::::::::::
         ::                  THERMODYNAMIC                  ::
         :::::::::::::::::::::::::::::::::::::::::::::::::::::
         :: total free energy          -8.024718819133 Eh   ::
         ::.................................................::
         :: total energy               -8.031293711620 Eh   ::
         :: zero point energy           0.006901046009 Eh   ::
         :: G(RRHO) w/o ZPVE           -0.000326153523 Eh   ::
         :: G(RRHO) contrib.            0.006574892487 Eh   ::
         :::::::::::::::::::::::::::::::::::::::::::::::::::::

           -------------------------------------------------
          | TOTAL ENERGY               -8.031293711620 Eh   |
          | TOTAL ENTHALPY             -8.024265989595 Eh   |
          | TOTAL FREE ENERGY          -8.024718819133 Eh   |
          | GRADIENT NORM               0.000315470141 Eh/Î± |
          | HOMO-LUMO GAP               2.876309762556 eV   |
           -------------------------------------------------

 * finished run on 2020/05/12 at 11:43:51.039
