   * xtb version 6.2.2 (9d81278992624c895f80dd42a50cac0aa55982e2) compiled by '@Darwin' on 04/03/2020
          program call               : xtb --input N2O1_2_S_0.input N2O1_2_S_0.xyz --ohess --molden --namespace N2O1_2_S_0 output.out
          number of atoms            :                     3
          number of electrons        :                    16
          charge                     :                     0
          spin                       :                   0.0

   ID    Z sym.   atoms
    1    8 O      1
    2    7 N      2, 3

          :  Hamiltonian                  GFN2-xTB          :
 * total energy  :    -9.6672174 Eh     change       -0.4085621E-13 Eh
 * total energy  :    -9.7032607 Eh     change       -0.3604329E-01 Eh
 * total energy  :    -9.7093812 Eh     change       -0.6120496E-02 Eh
 * total energy  :    -9.7100047 Eh     change       -0.6234881E-03 Eh
 * total energy  :    -9.7100709 Eh     change       -0.6623037E-04 Eh
 * total energy  :    -9.7100749 Eh     change       -0.3974808E-05 Eh
   *** GEOMETRY OPTIMIZATION CONVERGED AFTER 6 ITERATIONS ***

 final structure:
================
3
 xtb: 6.2.2 (9d81278992624c895f80dd42a50cac0aa55982e2)
O        -0.55793652234206   -0.66439455891817   -0.03288571689173
N        -0.17487203655183    0.71469552684990   -0.01135125769503
N         0.73280955889389   -0.05030096793173    0.04423797458676

          :  Hamiltonian                  GFN2-xTB          :
         :: gradient norm              0.000179933428 Eh/a0 ::
         :: HOMO-LUMO gap              2.651120616521 eV    ::
         :: SCC energy                -9.757175796488 Eh    ::
         :: -> dispersion             -0.000713316513 Eh    ::
         :: repulsion energy           0.047100896314 Eh    ::

    * Orbital Energies and Occupations

         #    Occupation            Energy/Eh            Energy/eV
      -------------------------------------------------------------
         1        2.0000           -0.8348201             -22.7166
         2        2.0000           -0.7284919             -19.8233
         3        2.0000           -0.6638897             -18.0654
         4        2.0000           -0.6632045             -18.0467
         5        2.0000           -0.6208449             -16.8940
         6        2.0000           -0.5430122             -14.7761
         7        2.0000           -0.5084628             -13.8360
         8        2.0000           -0.4791135             -13.0373 (HOMO)
         9                         -0.3816866             -10.3862 (LUMO)
        10                         -0.2158782              -5.8743
        11                         -0.1547180              -4.2101
        12                          0.3844901              10.4625
      -------------------------------------------------------------
                  HL-Gap            0.0974269 Eh            2.6511 eV

     #   Z        covCN         q      C6AA      Î±(0)
     1   8 O      1.814    -0.225    17.717     5.684
     2   7 N      1.888     0.113    19.938     6.619
     3   7 N      1.888     0.113    19.938     6.619

Wiberg/Mayer (AO) data.
largest (>0.10) Wiberg bond orders for each atom
          total WBO             WBO to atom ...

molecular dipole:
                 x           y           z       tot (Debye)
 q only:        0.356       0.424       0.021
   full:        0.329       0.391       0.019       1.299

 projected vibrational frequencies (cm-1)
eigval :       -0.00    -0.00    -0.00     0.00     0.00     0.00
eigval :      363.05  1109.91  1881.45

   temp. (K)  partition function   enthalpy   heat capacity  entropy
                                   cal/mol     cal/K/mol   cal/K/mol   J/K/mol
  10.00  VIB   1.00                    0.000      0.000     -0.001
         ROT   16.0                   29.809      2.981      8.488
         INT   16.0                   29.809      2.981      8.488
         TR   0.174E+25               49.681      4.968     20.396
         TOT                          79.4904     7.9490    28.8838   120.8499

       T/K    H(0)-H(T)+PV         H(T)/Eh          T*S/Eh         G(T)/Eh
   ------------------------------------------------------------------------
    298.15    0.414890E-02    0.117908E-01    0.270990E-01   -0.153082E-01
    120.00    0.154169E-02    0.918357E-02    0.932636E-02   -0.142790E-03
    100.00    0.127572E-02    0.891760E-02    0.752966E-02    0.138794E-02
     80.00    0.101583E-02    0.865771E-02    0.579191E-02    0.286580E-02
     60.00    0.760330E-03    0.840221E-02    0.412355E-02    0.427866E-02
     40.00    0.506708E-03    0.814859E-02    0.254343E-02    0.560516E-02
     20.00    0.253352E-03    0.789523E-02    0.109615E-02    0.679908E-02
     10.00    0.126676E-03    0.776856E-02    0.460293E-03    0.730826E-02 (used)
   ------------------------------------------------------------------------

         :::::::::::::::::::::::::::::::::::::::::::::::::::::
         ::                  THERMODYNAMIC                  ::
         :::::::::::::::::::::::::::::::::::::::::::::::::::::
         :: total free energy          -9.702766635299 Eh   ::
         ::.................................................::
         :: total energy               -9.710074899398 Eh   ::
         :: zero point energy           0.007641880861 Eh   ::
         :: G(RRHO) w/o ZPVE           -0.000333616762 Eh   ::
         :: G(RRHO) contrib.            0.007308264099 Eh   ::
         :::::::::::::::::::::::::::::::::::::::::::::::::::::

           -------------------------------------------------
          | TOTAL ENERGY               -9.710074899398 Eh   |
          | TOTAL ENTHALPY             -9.702306342522 Eh   |
          | TOTAL FREE ENERGY          -9.702766635299 Eh   |
          | GRADIENT NORM               0.000179933426 Eh/Î± |
          | HOMO-LUMO GAP               2.651120617169 eV   |
           -------------------------------------------------

 * finished run on 2020/05/12 at 11:43:54.802
