   * xtb version 6.2.2 (9d81278992624c895f80dd42a50cac0aa55982e2) compiled by '@Darwin' on 04/03/2020
          program call               : xtb --input C4N1_38_S_1.input C4N1_38_S_1.xyz --ohess --molden --namespace C4N1_38_S_1 output.out
          number of atoms            :                     5
          number of electrons        :                    21
          charge                     :                     0
          spin                       :                   0.5

   ID    Z sym.   atoms
    1    6 C      1, 3-5
    2    7 N      2

          :  Hamiltonian                  GFN2-xTB          :
 * total energy  :   -11.0301452 Eh     change        0.7057821E-10 Eh
 * total energy  :   -11.0536834 Eh     change       -0.2353816E-01 Eh
 * total energy  :   -11.0626271 Eh     change       -0.8943722E-02 Eh
 * total energy  :   -11.0626878 Eh     change       -0.6067349E-04 Eh
 * total energy  :   -11.0626932 Eh     change       -0.5380214E-05 Eh
 * total energy  :   -11.0626932 Eh     change       -0.3847164E-08 Eh
   *** GEOMETRY OPTIMIZATION CONVERGED AFTER 6 ITERATIONS ***

 final structure:
================
5
 xtb: 6.2.2 (9d81278992624c895f80dd42a50cac0aa55982e2)
C         0.85425056618549   -0.15335192036682   -0.50174629441587
N         0.33169472225695   -0.62166419265622    0.72087560644588
C        -0.78174518271481   -0.61095233042676   -0.14360183460312
C        -0.05586523177191    0.73311013675542    0.68149868716344
C        -0.34833387395572    0.65285730669439   -0.75702616459032

          :  Hamiltonian                  GFN2-xTB          :
         :: gradient norm              0.000041904735 Eh/a0 ::
         :: HOMO-LUMO gap              3.158180680907 eV    ::
         :: SCC energy               -11.178380267919 Eh    ::
         :: -> dispersion             -0.002327198166 Eh    ::
         :: repulsion energy           0.115687062087 Eh    ::

    * Orbital Energies and Occupations

         #    Occupation            Energy/Eh            Energy/eV
      -------------------------------------------------------------
         1        2.0000           -0.7941790             -21.6107
         2        2.0000           -0.6761136             -18.3980
         3        2.0000           -0.6646184             -18.0852
         4        2.0000           -0.6646172             -18.0852
         5        2.0000           -0.5598943             -15.2355
         6        2.0000           -0.5598916             -15.2354
         7        2.0000           -0.5314230             -14.4608
         8        2.0000           -0.4786745             -13.0254
         9        2.0000           -0.4698760             -12.7860
        10        2.0000           -0.4698758             -12.7860
        11        1.0000           -0.4286941             -11.6654 (HOMO)
        12                         -0.3126331              -8.5072 (LUMO)
        13                         -0.3126272              -8.5070
        14                         -0.2477379              -6.7413
        15                         -0.0015148              -0.0412
        16                         -0.0015044              -0.0409
        17                          0.0672708               1.8305
        18                          0.0672710               1.8305
        19                          0.0923603               2.5133
        20                          0.3666654               9.9775
      -------------------------------------------------------------
                  HL-Gap            0.1160610 Eh            3.1582 eV

     #   Z        covCN         q      C6AA      Î±(0)
     1   6 C      3.690    -0.022    21.155     6.582
     2   7 N      2.960     0.014    21.005     6.807
     3   6 C      3.690    -0.022    21.155     6.582
     4   6 C      3.690    -0.022    21.155     6.582
     5   6 C      3.169     0.052    26.478     8.407

Wiberg/Mayer (AO) data.
largest (>0.10) Wiberg bond orders for each atom
          total WBO             WBO to atom ...

molecular dipole:
                 x           y           z       tot (Debye)
 q only:       -0.026       0.049      -0.057
   full:       -0.008       0.014      -0.017       0.059

 projected vibrational frequencies (cm-1)
eigval :       -0.00    -0.00     0.00     0.00     0.00     0.00
eigval :      404.64   405.07   822.01   849.50   849.59  1039.66
eigval :     1039.83  1278.35  1394.16

   temp. (K)  partition function   enthalpy   heat capacity  entropy
                                   cal/mol     cal/K/mol   cal/K/mol   J/K/mol
  10.00  VIB   1.00                    0.000      0.000     -0.001
         ROT   43.0                   29.809      2.981     10.457
         INT   43.0                   29.809      2.981     10.456
         TR   0.290E+25               49.681      4.968     21.419
         TOT                          79.4904     7.9490    31.8758   133.3685

       T/K    H(0)-H(T)+PV         H(T)/Eh          T*S/Eh         G(T)/Eh
   ------------------------------------------------------------------------
    298.15    0.467197E-02    0.230860E-01    0.292134E-01   -0.612747E-02
    120.00    0.154963E-02    0.199636E-01    0.990762E-02    0.100560E-01
    100.00    0.127775E-02    0.196917E-01    0.800873E-02    0.116830E-01
     80.00    0.101595E-02    0.194299E-01    0.617350E-02    0.132564E-01
     60.00    0.760280E-03    0.191743E-01    0.440960E-02    0.147647E-01
     40.00    0.506706E-03    0.189207E-01    0.273417E-02    0.161865E-01
     20.00    0.253352E-03    0.186673E-01    0.119152E-02    0.174758E-01
     10.00    0.126676E-03    0.185407E-01    0.507974E-03    0.180327E-01 (used)
   ------------------------------------------------------------------------

         :::::::::::::::::::::::::::::::::::::::::::::::::::::
         ::                  THERMODYNAMIC                  ::
         :::::::::::::::::::::::::::::::::::::::::::::::::::::
         :: total free energy         -11.044660504276 Eh   ::
         ::.................................................::
         :: total energy              -11.062693191953 Eh   ::
         :: zero point energy           0.018413985362 Eh   ::
         :: G(RRHO) w/o ZPVE           -0.000381297684 Eh   ::
         :: G(RRHO) contrib.            0.018032687678 Eh   ::
         :::::::::::::::::::::::::::::::::::::::::::::::::::::

           -------------------------------------------------
          | TOTAL ENERGY              -11.062693191953 Eh   |
          | TOTAL ENTHALPY            -11.044152530576 Eh   |
          | TOTAL FREE ENERGY         -11.044660504276 Eh   |
          | GRADIENT NORM               0.000041510785 Eh/Î± |
          | HOMO-LUMO GAP               3.158179582291 eV   |
           -------------------------------------------------

 * finished run on 2020/05/12 at 11:44:15.268
