   * xtb version 6.2.2 (9d81278992624c895f80dd42a50cac0aa55982e2) compiled by '@Darwin' on 04/03/2020
          program call               : xtb --input H1C4_10_S_3.input H1C4_10_S_3.xyz --ohess --molden --namespace H1C4_10_S_3 output.out
          number of atoms            :                     5
          number of electrons        :                    17
          charge                     :                     0
          spin                       :                   1.5

   ID    Z sym.   atoms
    1    6 C      1-4
    2    1 H      5

          :  Hamiltonian                  GFN2-xTB          :
 * total energy  :    -8.5408742 Eh     change       -0.2044656E-08 Eh
 * total energy  :    -8.5681259 Eh     change       -0.2725169E-01 Eh
 * total energy  :    -8.5867345 Eh     change       -0.1860863E-01 Eh
 * total energy  :    -8.5888540 Eh     change       -0.2119494E-02 Eh
 * total energy  :    -8.5894664 Eh     change       -0.6123544E-03 Eh
 * total energy  :    -8.5896692 Eh     change       -0.2027959E-03 Eh
 * total energy  :    -8.5899100 Eh     change       -0.2408061E-03 Eh
 * total energy  :    -8.5902025 Eh     change       -0.2925513E-03 Eh
 * total energy  :    -8.5904991 Eh     change       -0.2965499E-03 Eh
 * total energy  :    -8.5906310 Eh     change       -0.1318953E-03 Eh
 * total energy  :    -8.5907085 Eh     change       -0.7752450E-04 Eh
 * total energy  :    -8.5907704 Eh     change       -0.6192549E-04 Eh
 * total energy  :    -8.5908008 Eh     change       -0.3032534E-04 Eh
 * total energy  :    -8.5908209 Eh     change       -0.2018233E-04 Eh
 * total energy  :    -8.5908237 Eh     change       -0.2739097E-05 Eh
   *** GEOMETRY OPTIMIZATION CONVERGED AFTER 15 ITERATIONS ***

 final structure:
================
5
 xtb: 6.2.2 (9d81278992624c895f80dd42a50cac0aa55982e2)
C         0.55252818117937    0.01692755877310   -0.00476661092887
C        -0.51743807368807    0.05435456528761    0.97459414123576
C        -1.00370393446180   -0.53733756831210   -0.26473519703767
C        -0.54773637081618    0.83267570422811   -0.47407127657778
H         1.51635019778668   -0.36662025997672   -0.23102105669144

          :  Hamiltonian                  GFN2-xTB          :
         :: gradient norm              0.000650428843 Eh/a0 ::
         :: HOMO-LUMO gap              4.896191001003 eV    ::
         :: SCC energy                -8.711807228508 Eh    ::
         :: -> dispersion             -0.001995508012 Eh    ::
         :: repulsion energy           0.120983518093 Eh    ::

    * Orbital Energies and Occupations

         #    Occupation            Energy/Eh            Energy/eV
      -------------------------------------------------------------
         1        2.0000           -0.7148434             -19.4519
         2        2.0000           -0.6059109             -16.4877
         3        2.0000           -0.5856921             -15.9375
         4        2.0000           -0.5674790             -15.4419
         5        2.0000           -0.5098416             -13.8735
         6        2.0000           -0.4556374             -12.3985
         7        1.9830           -0.4276487             -11.6369
         8        1.0170           -0.4199418             -11.4272
         9        1.0000           -0.4104314             -11.1684
        10        1.0000           -0.3520515              -9.5798 (HOMO)
        11                         -0.1721199              -4.6836 (LUMO)
        12                         -0.1532711              -4.1707
        13                         -0.0359113              -0.9772
        14                          0.0440290               1.1981
        15                          0.1817338               4.9452
        16                          0.2462256               6.7001
        17                          0.5089607              13.8495
      -------------------------------------------------------------
Molecule has the following symmetry elements: (sigma)
It seems to be the Cs point group
                  HL-Gap            0.1799316 Eh            4.8962 eV

     #   Z        covCN         q      C6AA      Î±(0)
     1   6 C      3.826     0.039    19.906     6.349
     2   6 C      2.910    -0.034    28.859     8.809
     3   6 C      2.898    -0.039    28.964     8.824
     4   6 C      2.910    -0.034    28.838     8.806
     5   1 H      0.927     0.068     2.104     2.268

Wiberg/Mayer (AO) data.
largest (>0.10) Wiberg bond orders for each atom
          total WBO             WBO to atom ...

molecular dipole:
                 x           y           z       tot (Debye)
 q only:        0.378      -0.063      -0.044
   full:        0.797      -0.072      -0.064       2.040

 projected vibrational frequencies (cm-1)
eigval :       -0.00    -0.00    -0.00    -0.00     0.00     0.00
eigval :     -417.70   386.52   549.98   676.51   823.32   957.07
eigval :     1148.12  1510.58  3235.86

   temp. (K)  partition function   enthalpy   heat capacity  entropy
                                   cal/mol     cal/K/mol   cal/K/mol   J/K/mol
  10.00  VIB   1.00                    0.000      0.000     -0.001
         ROT   78.0                   29.809      2.981     11.639
         INT   78.0                   29.809      2.981     11.638
         TR   0.204E+25               49.681      4.968     20.719
         TOT                          79.4904     7.9490    32.3574   135.3836

       T/K    H(0)-H(T)+PV         H(T)/Eh          T*S/Eh         G(T)/Eh
   ------------------------------------------------------------------------
    298.15    0.455242E-02    0.257119E-01    0.292649E-01   -0.355292E-02
    120.00    0.154199E-02    0.227015E-01    0.999040E-02    0.127111E-01
    100.00    0.127469E-02    0.224342E-01    0.808185E-02    0.143524E-01
     80.00    0.101524E-02    0.221748E-01    0.623406E-02    0.159407E-01
     60.00    0.760227E-03    0.219197E-01    0.445557E-02    0.174642E-01
     40.00    0.506706E-03    0.216662E-01    0.276486E-02    0.189014E-01
     20.00    0.253352E-03    0.214129E-01    0.120686E-02    0.202060E-01
     10.00    0.126676E-03    0.212862E-01    0.515649E-03    0.207705E-01 (used)
   ------------------------------------------------------------------------

         :::::::::::::::::::::::::::::::::::::::::::::::::::::
         ::                  THERMODYNAMIC                  ::
         :::::::::::::::::::::::::::::::::::::::::::::::::::::
         :: total free energy          -8.570053136247 Eh   ::
         ::.................................................::
         :: total energy               -8.590823682257 Eh   ::
         :: zero point energy           0.021159518779 Eh   ::
         :: G(RRHO) w/o ZPVE           -0.000388972769 Eh   ::
         :: G(RRHO) contrib.            0.020770546010 Eh   ::
         :::::::::::::::::::::::::::::::::::::::::::::::::::::

           -------------------------------------------------
          | TOTAL ENERGY               -8.590823682257 Eh   |
          | TOTAL ENTHALPY             -8.569537487463 Eh   |
          | TOTAL FREE ENERGY          -8.570053136247 Eh   |
          | GRADIENT NORM               0.000651144969 Eh/Î± |
          | HOMO-LUMO GAP               4.896187368610 eV   |
           -------------------------------------------------

 * finished run on 2020/05/12 at 11:45:12.309
