   * xtb version 6.2.2 (9d81278992624c895f80dd42a50cac0aa55982e2) compiled by '@Darwin' on 04/03/2020
          program call               : xtb --input H1_0_S_1.input H1_0_S_1.xyz --ohess --molden --namespace H1_0_S_1 output.out
          number of atoms            :                     1
          number of electrons        :                     1
          charge                     :                     0
          spin                       :                   0.5

   ID    Z sym.   atoms
    1    1 H      1

          :  Hamiltonian                  GFN2-xTB          :

 final structure:
================
1
 xtb: 6.2.2 (9d81278992624c895f80dd42a50cac0aa55982e2)
H         0.00000000000000    0.00000000000000    0.00000000000000

          :  Hamiltonian                  GFN2-xTB          :
         :: gradient norm              0.000000000000 Eh/a0 ::
         :: HOMO-LUMO gap              0.000000000000 eV    ::
         :: SCC energy                -0.393482763910 Eh    ::
         :: -> dispersion              0.000000000000 Eh    ::
         :: repulsion energy           0.000000000000 Eh    ::

    * Orbital Energies and Occupations

         #    Occupation            Energy/Eh            Energy/eV
      -------------------------------------------------------------
         1        1.0000           -0.3934828             -10.7072 (HOMO)
      -------------------------------------------------------------
                  HL-Gap********************* Eh****************** eV

     #   Z        covCN         q      C6AA      Î±(0)
     1   1 H      0.000    -0.000     7.620     5.048

Wiberg/Mayer (AO) data.
largest (>0.10) Wiberg bond orders for each atom
          total WBO             WBO to atom ...

molecular dipole:
                 x           y           z       tot (Debye)
 q only:        0.000       0.000       0.000
   full:        0.000       0.000       0.000       0.000

   temp. (K)  partition function   enthalpy   heat capacity  entropy
                                   cal/mol     cal/K/mol   cal/K/mol   J/K/mol
  10.00  VIB   1.00                    0.000      0.000      0.000
         ROT   1.00                    0.000      0.000      0.000
         INT   1.00                    0.000      0.000      0.000
         TR   0.601E+22               49.681      4.968      9.144
         TOT                          49.6815     4.9681     9.1441    38.2588

       T/K    H(0)-H(T)+PV         H(T)/Eh          T*S/Eh         G(T)/Eh
   ------------------------------------------------------------------------
    298.15    0.236053E-02    0.236053E-02    0.123547E-01   -0.999422E-02
    120.00    0.950070E-03    0.950070E-03    0.410832E-02   -0.315825E-02
    100.00    0.791725E-03    0.791725E-03    0.327932E-02   -0.248760E-02
     80.00    0.633380E-03    0.633380E-03    0.248219E-02   -0.184881E-02
     60.00    0.475035E-03    0.475035E-03    0.172505E-02   -0.125002E-02
     40.00    0.316690E-03    0.316690E-03    0.102169E-02   -0.705001E-03
     20.00    0.158345E-03    0.158345E-03    0.401143E-03   -0.242798E-03
     10.00    0.791725E-04    0.791725E-04    0.145720E-03   -0.665474E-04 (used)
   ------------------------------------------------------------------------

         :::::::::::::::::::::::::::::::::::::::::::::::::::::
         ::                  THERMODYNAMIC                  ::
         :::::::::::::::::::::::::::::::::::::::::::::::::::::
         :: total free energy          -0.393549311359 Eh   ::
         ::.................................................::
         :: total energy               -0.393482763910 Eh   ::
         :: zero point energy           0.000000000000 Eh   ::
         :: G(RRHO) w/o ZPVE           -0.000066547449 Eh   ::
         :: G(RRHO) contrib.           -0.000066547449 Eh   ::
         :::::::::::::::::::::::::::::::::::::::::::::::::::::

           -------------------------------------------------
          | TOTAL ENERGY               -0.393482763910 Eh   |
          | TOTAL ENTHALPY             -0.393403591400 Eh   |
          | TOTAL FREE ENERGY          -0.393549311359 Eh   |
          | GRADIENT NORM               0.000000000000 Eh/Î± |
          | HOMO-LUMO GAP     ************************ eV   |
           -------------------------------------------------

 * finished run on 2020/05/13 at 16:19:06.205
