 Gaussian 16, Revision B.01,

 --------------------------------------------------------
 #P M062X/cc-pvtz nosymm opt(noeigentest) optcyc=120 freq
 --------------------------------------------------------

 -----
 Title
 -----
 Symbolic Z-matrix:
 Charge =  0 Multiplicity = 1

 SCF Done:  E(RM062X) =  -195.276673877     A.U. after   12 cycles
 SCF Done:  E(RM062X) =  -195.279511525     A.U. after   10 cycles
 SCF Done:  E(RM062X) =  -195.279582764     A.U. after    8 cycles
 SCF Done:  E(RM062X) =  -195.279585150     A.U. after    7 cycles
 Optimization completed.
    -- Stationary point found.
 Normal termination of Gaussian 16 at Sat Sep 26 00:40:34 2020.

 -------------------------------------------------------------------
 #P Geom=AllCheck Guess=TCheck SCRF=Check GenChk RM062X/CC-pVTZ Freq
 -------------------------------------------------------------------

 Structure from the checkpoint file:  "input.chk"
 -----
 Title
 -----
 Charge =  0 Multiplicity = 1

 SCF Done:  E(RM062X) =  -195.279585150     A.U. after    1 cycles

  Exact polarizability:  59.382   0.000  37.148  17.008  -0.000  97.317
 Approx polarizability:  65.187   0.000  47.933  11.325  -0.000 113.026

                      1                      2                      3
                      A                      A                      A
 Frequencies --    133.0221               199.7028               210.0306
 Red. masses --      1.9631                 2.6005                 1.3154
 Frc consts  --      0.0205                 0.0611                 0.0342
 IR Inten    --      1.1300                 1.8351                 0.1280

                      4                      5                      6
                      A                      A                      A
 Frequencies --    260.3579               457.4729               487.2975
 Red. masses --      1.9569                 2.3072                 3.6660
 Frc consts  --      0.0782                 0.2845                 0.5129
 IR Inten    --      2.3714                 0.4955                 0.0233

                      7                      8                      9
                      A                      A                      A
 Frequencies --    652.5474               860.9175               913.3555
 Red. masses --      1.2807                 1.6012                 1.4952
 Frc consts  --      0.3213                 0.6992                 0.7349
 IR Inten    --      2.8834                 6.4836                 6.0112

                     10                     11                     12
                      A                      A                      A
 Frequencies --    954.4413               992.8356               995.5156
 Red. masses --      1.3036                 1.4173                 1.1793
 Frc consts  --      0.6997                 0.8231                 0.6886
 IR Inten    --     34.4252                 9.7812                21.6120

                     13                     14                     15
                      A                      A                      A
 Frequencies --   1053.5469              1073.1331              1111.6611
 Red. masses --      1.1065                 1.5707                 2.5459
 Frc consts  --      0.7236                 1.0657                 1.8537
 IR Inten    --     39.4761                 1.2293                 0.0046

                     16                     17                     18
                      A                      A                      A
 Frequencies --   1213.8592              1294.3669              1326.0501
 Red. masses --      1.9084                 1.2864                 1.4194
 Frc consts  --      1.6568                 1.2698                 1.4705
 IR Inten    --      1.2532                 1.8536                 0.2352

                     19                     20                     21
                      A                      A                      A
 Frequencies --   1339.3303              1413.8340              1455.3791
 Red. masses --      1.2634                 1.2739                 1.2247
 Frc consts  --      1.3352                 1.5003                 1.5283
 IR Inten    --      2.6955                 3.1779                 5.5554

                     22                     23                     24
                      A                      A                      A
 Frequencies --   1482.2679              1494.8792              1702.4390
 Red. masses --      1.0434                 1.0592                 4.7856
 Frc consts  --      1.3507                 1.3946                 8.1721
 IR Inten    --      6.9714                 9.2236                 6.0032

                     25                     26                     27
                      A                      A                      A
 Frequencies --   1761.9543              3053.1387              3105.5686
 Red. masses --      5.8570                 1.0364                 1.0997
 Frc consts  --     10.7131                 5.6922                 6.2490
 IR Inten    --     18.2498                23.7850                12.3725

                     28                     29                     30
                      A                      A                      A
 Frequencies --   3137.5782              3152.0982              3158.6957
 Red. masses --      1.0984                 1.0908                 1.0889
 Frc consts  --      6.3711                 6.3857                 6.4010
 IR Inten    --      4.3313                 0.9842                13.6222

                     31                     32                     33
                      A                      A                      A
 Frequencies --   3164.5774              3170.9019              3258.1993
 Red. masses --      1.0687                 1.0838                 1.1158
 Frc consts  --      6.3057                 6.4206                 6.9789
 IR Inten    --     25.2529                 5.6378                 8.2516

 - Thermochemistry -
 -------------------
 Temperature   298.150 Kelvin.  Pressure   1.00000 Atm.
 Atom     1 has atomic number  6 and mass  12.00000

 Molecular mass:    68.06260 amu.
 Principal axes and moments of inertia in atomic units:
                           1         2         3
     Eigenvalues --    62.61895 828.67149 880.23440
           X            0.51755   0.85565  -0.00000
           Y            0.00000   0.00000   1.00000
           Z            0.85565  -0.51755   0.00000
 This molecule is an asymmetric top.
 Rotational symmetry number  1.
 Rotational temperatures (Kelvin)      1.38319     0.10452     0.09840
 Rotational constants (GHZ):          28.82101     2.17787     2.05030
 Zero-point vibrational energy     299311.4 (Joules/Mol)
                                   71.53714 (Kcal/Mol)
 Warning -- explicit consideration of   6 degrees of freedom as
           vibrations may cause significant error
 Vibrational temperatures:    191.39   287.33   302.19   374.60   658.20
          (Kelvin)            701.11   938.87  1238.67  1314.11  1373.23
                             1428.47  1432.32  1515.82  1544.00  1599.43
                             1746.47  1862.31  1907.89  1927.00  2034.19
                             2093.97  2132.65  2150.80  2449.43  2535.06
                             4392.79  4468.22  4514.28  4535.17  4544.66
                             4553.12  4562.22  4687.82

 Zero-point correction=                           0.114002 (Hartree/Particle)
 Thermal correction to Energy=                    0.120099
 Thermal correction to Enthalpy=                  0.121043
 Thermal correction to Gibbs Free Energy=         0.085193
 Sum of electronic and zero-point Energies=           -195.165583
 Sum of electronic and thermal Energies=              -195.159486
 Sum of electronic and thermal Enthalpies=            -195.158542
 Sum of electronic and thermal Free Energies=         -195.194392

                     E (Thermal)             CV                S
                      KCal/Mol        Cal/Mol-Kelvin    Cal/Mol-Kelvin
 Total                   75.363             20.992             75.454
 Electronic               0.000              0.000              0.000
 Translational            0.889              2.981             38.571
 Rotational               0.889              2.981             25.327
 Vibrational             73.586             15.031             11.555
 Vibration     1          0.613              1.920              2.902
 Vibration     2          0.638              1.840              2.136
 Vibration     3          0.642              1.825              2.043
 Vibration     4          0.668              1.745              1.659
 Vibration     5          0.816              1.344              0.773
 Vibration     6          0.843              1.278              0.691

 Optimization completed.
    -- Stationary point found.
 Normal termination of Gaussian 16 at Sat Sep 26 00:46:29 2020.
 Gaussian 16:  ES64L-G16RevB.01 20-Dec-2017

 -----------------------------------------------
 #P CCSD(T)/aug-cc-pvtz geom=allcheck guess=read
 -----------------------------------------------

 Structure from the checkpoint file:  "input.chk"
 -----
 Title
 -----
 Charge =  0 Multiplicity = 1

                         Standard orientation:
 ---------------------------------------------------------------------
 Center     Atomic      Atomic             Coordinates (Angstroms)
 Number     Number       Type             X           Y           Z
 ---------------------------------------------------------------------
      1          6           0       -2.410735    0.748294   -0.000000
      2          6           0       -1.406957   -0.123544   -0.000000
      3          6           0        0.000000    0.250657    0.000000
      4          6           0        1.001061   -0.626698    0.000000
      5          6           0        2.451125   -0.269967    0.000000
      6          1           0       -2.224103    1.815306   -0.000000
      7          1           0       -3.442153    0.426009   -0.000000
      8          1           0       -1.621054   -1.187967   -0.000000
      9          1           0        0.221483    1.314755    0.000000
     10          1           0        0.758294   -1.685958   -0.000000
     11          1           0        2.590543    0.810003    0.000000
     12          1           0        2.955013   -0.682302    0.876351
     13          1           0        2.955013   -0.682302   -0.876351
 ---------------------------------------------------------------------

 SCF Done:  E(RHF) =  -194.031869127     A.U. after   11 cycles
 E2 =    -0.8360155715D+00 EUMP2 =    -0.19486788469890D+03
 CCSD(T)
 CCSD(T)= -0.19495212053D+03

 The electronic state is 1-A'.
 Alpha  occ. eigenvalues --  -11.23393 -11.23380 -11.22629 -11.22311 -11.22039
 Alpha  occ. eigenvalues --   -1.09954  -1.03133  -0.93312  -0.79194  -0.75283
 Alpha  occ. eigenvalues --   -0.64836  -0.61815  -0.57075  -0.56908  -0.53806
 Alpha  occ. eigenvalues --   -0.51365  -0.48654  -0.43581  -0.31358
 Alpha virt. eigenvalues --    0.03043   0.03374   0.03581   0.04811   0.05212
 Alpha virt. eigenvalues --    0.05480   0.07166   0.07384   0.08843   0.09728
 Alpha virt. eigenvalues --    0.10351   0.11358   0.11735   0.11902   0.12764

 Mulliken charges:
               1
     1  C   -1.196435
     2  C   -0.106696
     3  C    0.067368
     4  C   -0.499031
     5  C   -0.782016
     6  H    0.269765
     7  H    0.459263
     8  H    0.291882
     9  H    0.287287
    10  H    0.373583
    11  H    0.292527
    12  H    0.271251
    13  H    0.271251
 Sum of Mulliken charges =  -0.00000

 Dipole moment (field-independent basis, Debye):
    X=              0.6255    Y=             -0.2145    Z=              0.0000  Tot=              0.6612
 Quadrupole moment (field-independent basis, Debye-Ang):
   XX=            -30.2265   YY=            -29.5558   ZZ=            -35.8269
   XY=             -0.2752   XZ=              0.0000   YZ=             -0.0000

 =-194.9111836\CCSD(T)=-194.9521205\RMSD=8.347e-09\PG=CS [SG(C5H6),X(H2
 Normal termination of Gaussian 16 at Sat Sep 26 05:43:35 2020.
