   * xtb version 6.2.2 (9d81278992624c895f80dd42a50cac0aa55982e2) compiled by '@Darwin' on 04/03/2020
          program call               : xtb --input H2C2N1_1_S_3.input H2C2N1_1_S_3.xyz --ohess --molden --namespace H2C2N1_1_S_3 output.out
          number of atoms            :                     5
          number of electrons        :                    15
          charge                     :                     0
          spin                       :                   1.5

   ID    Z sym.   atoms
    1    6 C      1, 3
    2    7 N      2
    3    1 H      4, 5

          :  Hamiltonian                  GFN2-xTB          :
 * total energy  :    -7.8454669 Eh     change        0.9360486E-09 Eh
 * total energy  :    -7.8896879 Eh     change       -0.4422093E-01 Eh
 * total energy  :    -7.9023820 Eh     change       -0.1269414E-01 Eh
 * total energy  :    -7.9097317 Eh     change       -0.7349690E-02 Eh
 * total energy  :    -7.9104514 Eh     change       -0.7196891E-03 Eh
 * total energy  :    -7.9129790 Eh     change       -0.2527620E-02 Eh
 * total energy  :    -7.9138399 Eh     change       -0.8609326E-03 Eh
 * total energy  :    -7.9141211 Eh     change       -0.2811396E-03 Eh
 * total energy  :    -7.9144146 Eh     change       -0.2935389E-03 Eh
 * total energy  :    -7.9144532 Eh     change       -0.3860887E-04 Eh
 * total energy  :    -7.9144563 Eh     change       -0.3121707E-05 Eh
   *** GEOMETRY OPTIMIZATION CONVERGED AFTER 11 ITERATIONS ***

 final structure:
================
5
 xtb: 6.2.2 (9d81278992624c895f80dd42a50cac0aa55982e2)
C        -0.37970838894405    0.13178166197855    0.01771229348892
N         0.88311854352436    0.31890605844641    0.07266106851304
C        -1.05635677029506   -1.04683267482618   -0.21542225063434
H        -0.99644641348811    1.02568434773050    0.17743153699834
H         1.54939302920286   -0.42953939332928   -0.05238264836598

          :  Hamiltonian                  GFN2-xTB          :
         :: gradient norm              0.000626625605 Eh/a0 ::
         :: HOMO-LUMO gap              3.204483523444 eV    ::
         :: SCC energy                -8.025064393262 Eh    ::
         :: -> dispersion             -0.001547567982 Eh    ::
         :: repulsion energy           0.110608008824 Eh    ::

    * Orbital Energies and Occupations

         #    Occupation            Energy/Eh            Energy/eV
      -------------------------------------------------------------
         1        2.0000           -0.6710992             -18.2615
         2        2.0000           -0.6201437             -16.8750
         3        2.0000           -0.5820767             -15.8391
         4        2.0000           -0.5223902             -14.2150
         5        2.0000           -0.5046074             -13.7311
         6        2.0000           -0.4605559             -12.5324
         7        1.0000           -0.3930377             -10.6951
         8        1.0000           -0.3688726             -10.0375
         9        1.0000           -0.3220948              -8.7646 (HOMO)
        10                         -0.2043321              -5.5602 (LUMO)
        11                          0.0720836               1.9615
        12                          0.2070873               5.6351
        13                          0.3409680               9.2782
        14                          0.5501301              14.9698
      -------------------------------------------------------------
                  HL-Gap            0.1177627 Eh            3.2045 eV

     #   Z        covCN         q      C6AA      Î±(0)
     1   6 C      2.814     0.118    25.387     8.255
     2   7 N      1.778    -0.220    26.613     7.640
     3   6 C      0.988    -0.187    42.212    10.916
     4   1 H      0.924     0.103     1.762     2.076
     5   1 H      0.860     0.186     1.178     1.700

Wiberg/Mayer (AO) data.
largest (>0.10) Wiberg bond orders for each atom
          total WBO             WBO to atom ...

molecular dipole:
                 x           y           z       tot (Debye)
 q only:        0.274       0.314       0.066
   full:        0.321       0.297       0.064       1.123

 projected vibrational frequencies (cm-1)
eigval :       -0.00    -0.00    -0.00    -0.00    -0.00     0.00
eigval :      507.90   635.03   820.89   994.86  1187.09  1202.50
eigval :     1500.87  2808.14  3418.45

   temp. (K)  partition function   enthalpy   heat capacity  entropy
                                   cal/mol     cal/K/mol   cal/K/mol   J/K/mol
  10.00  VIB   1.00                    0.000      0.000     -0.000
         ROT   49.1                   29.809      2.981     10.719
         INT   49.1                   29.809      2.981     10.719
         TR   0.151E+25               49.681      4.968     20.115
         TOT                          79.4904     7.9490    30.8331   129.0056

       T/K    H(0)-H(T)+PV         H(T)/Eh          T*S/Eh         G(T)/Eh
   ------------------------------------------------------------------------
    298.15    0.428618E-02    0.340749E-01    0.281407E-01    0.593420E-02
    120.00    0.152703E-02    0.313157E-01    0.968053E-02    0.216352E-01
    100.00    0.126866E-02    0.310574E-01    0.783170E-02    0.232257E-01
     80.00    0.101369E-02    0.308024E-01    0.603789E-02    0.247645E-01
     60.00    0.760069E-03    0.305488E-01    0.430960E-02    0.262392E-01
     40.00    0.506704E-03    0.302954E-01    0.266767E-02    0.276277E-01
     20.00    0.253352E-03    0.300421E-01    0.115827E-02    0.288838E-01
     10.00    0.126676E-03    0.299154E-01    0.491357E-03    0.294240E-01 (used)
   ------------------------------------------------------------------------

         :::::::::::::::::::::::::::::::::::::::::::::::::::::
         ::                  THERMODYNAMIC                  ::
         :::::::::::::::::::::::::::::::::::::::::::::::::::::
         :: total free energy          -7.885032319803 Eh   ::
         ::.................................................::
         :: total energy               -7.914456340269 Eh   ::
         :: zero point energy           0.029788700980 Eh   ::
         :: G(RRHO) w/o ZPVE           -0.000364680513 Eh   ::
         :: G(RRHO) contrib.            0.029424020466 Eh   ::
         :::::::::::::::::::::::::::::::::::::::::::::::::::::

           -------------------------------------------------
          | TOTAL ENERGY               -7.914456340269 Eh   |
          | TOTAL ENTHALPY             -7.884540963274 Eh   |
          | TOTAL FREE ENERGY          -7.885032319803 Eh   |
          | GRADIENT NORM               0.000626518141 Eh/Î± |
          | HOMO-LUMO GAP               3.204486715379 eV   |
           -------------------------------------------------

 * finished run on 2020/05/12 at 11:44:45.504
