   * xtb version 6.2.2 (9d81278992624c895f80dd42a50cac0aa55982e2) compiled by '@Darwin' on 04/03/2020
          program call               : xtb --input N2O1_2_S_2.input N2O1_2_S_2.xyz --ohess --molden --namespace N2O1_2_S_2 output.out
          number of atoms            :                     3
          number of electrons        :                    16
          charge                     :                     0
          spin                       :                   1.0

   ID    Z sym.   atoms
    1    8 O      1
    2    7 N      2, 3

          :  Hamiltonian                  GFN2-xTB          :
 * total energy  :    -9.6201169 Eh     change       -0.8769874E-11 Eh
 * total energy  :    -9.6263497 Eh     change       -0.6232741E-02 Eh
 * total energy  :    -9.6271167 Eh     change       -0.7670621E-03 Eh
 * total energy  :    -9.6271386 Eh     change       -0.2191184E-04 Eh
 * total energy  :    -9.6271390 Eh     change       -0.3725130E-06 Eh
   *** GEOMETRY OPTIMIZATION CONVERGED AFTER 5 ITERATIONS ***

 final structure:
================
3
 xtb: 6.2.2 (9d81278992624c895f80dd42a50cac0aa55982e2)
O        -0.49446921489121   -0.58881606335809   -0.02914481278482
N        -0.28169683886358    0.74019215549884   -0.01782052297236
N         0.77616705375479   -0.15137609214074    0.04696633575719

          :  Hamiltonian                  GFN2-xTB          :
         :: gradient norm              0.000352461763 Eh/a0 ::
         :: HOMO-LUMO gap              5.640904806320 eV    ::
         :: SCC energy                -9.645926484513 Eh    ::
         :: -> dispersion             -0.000713742639 Eh    ::
         :: repulsion energy           0.018787485406 Eh    ::

    * Orbital Energies and Occupations

         #    Occupation            Energy/Eh            Energy/eV
      -------------------------------------------------------------
         1        2.0000           -0.8623836             -23.4667
         2        2.0000           -0.7316573             -19.9094
         3        2.0000           -0.7129472             -19.4003
         4        2.0000           -0.6737167             -18.3328
         5        2.0000           -0.5888887             -16.0245
         6        2.0000           -0.5360209             -14.5859
         7        2.0000           -0.5047304             -13.7344
         8        1.0000           -0.4502379             -12.2516
         9        1.0000           -0.4019833             -10.9385 (HOMO)
        10                         -0.1946838              -5.2976 (LUMO)
        11                         -0.0186366              -0.5071
        12                          0.0261474               0.7115
      -------------------------------------------------------------
                  HL-Gap            0.2072994 Eh            5.6409 eV

     #   Z        covCN         q      C6AA      Î±(0)
     1   8 O      1.838     0.006    14.391     5.123
Molecule has the following symmetry elements: (C2) 2*(sigma)
It seems to be the C2v point group
     2   7 N      1.898    -0.003    22.012     6.956
     3   7 N      1.898    -0.003    22.012     6.956

Wiberg/Mayer (AO) data.
largest (>0.10) Wiberg bond orders for each atom
          total WBO             WBO to atom ...

molecular dipole:
                 x           y           z       tot (Debye)
 q only:       -0.008      -0.009      -0.000
   full:       -0.159      -0.189      -0.009       0.627

 projected vibrational frequencies (cm-1)
eigval :       -0.00    -0.00    -0.00     0.00     0.00     0.00
eigval :     1067.52  1082.53  1474.06

   temp. (K)  partition function   enthalpy   heat capacity  entropy
                                   cal/mol     cal/K/mol   cal/K/mol   J/K/mol
  10.00  VIB   1.00                    0.000      0.000     -0.000
         ROT   16.5                   29.809      2.981      8.547
         INT   16.5                   29.809      2.981      8.547
         TR   0.174E+25               49.681      4.968     20.396
         TOT                          79.4904     7.9490    28.9428   121.0965

       T/K    H(0)-H(T)+PV         H(T)/Eh          T*S/Eh         G(T)/Eh
   ------------------------------------------------------------------------
    298.15    0.383736E-02    0.120937E-01    0.266420E-01   -0.145483E-01
    120.00    0.152014E-02    0.977648E-02    0.931100E-02    0.465480E-03
    100.00    0.126676E-02    0.952311E-02    0.752826E-02    0.199485E-02
     80.00    0.101341E-02    0.926976E-02    0.579654E-02    0.347321E-02
     60.00    0.760056E-03    0.901640E-02    0.412882E-02    0.488759E-02
     40.00    0.506704E-03    0.876305E-02    0.254716E-02    0.621589E-02
     20.00    0.253352E-03    0.850970E-02    0.109802E-02    0.741168E-02
     10.00    0.126676E-03    0.838302E-02    0.461232E-03    0.792179E-02 (used)
   ------------------------------------------------------------------------

         :::::::::::::::::::::::::::::::::::::::::::::::::::::
         ::                  THERMODYNAMIC                  ::
         :::::::::::::::::::::::::::::::::::::::::::::::::::::
         :: total free energy          -9.619217207444 Eh   ::
         ::.................................................::
         :: total energy               -9.627138998253 Eh   ::
         :: zero point energy           0.008256347175 Eh   ::
         :: G(RRHO) w/o ZPVE           -0.000334556366 Eh   ::
         :: G(RRHO) contrib.            0.007921790809 Eh   ::
         :::::::::::::::::::::::::::::::::::::::::::::::::::::

           -------------------------------------------------
          | TOTAL ENERGY               -9.627138998253 Eh   |
          | TOTAL ENTHALPY             -9.618755975063 Eh   |
          | TOTAL FREE ENERGY          -9.619217207444 Eh   |
          | GRADIENT NORM               0.000352427939 Eh/Î± |
          | HOMO-LUMO GAP               5.640904969060 eV   |
           -------------------------------------------------

 * finished run on 2020/05/12 at 11:43:54.883
