   * xtb version 6.2.2 (9d81278992624c895f80dd42a50cac0aa55982e2) compiled by '@Darwin' on 04/03/2020
          program call               : xtb --input H2C1O1_1_S_0.input H2C1O1_1_S_0.xyz --ohess --molden --namespace H2C1O1_1_S_0 output.out
          number of atoms            :                     4
          number of electrons        :                    12
          charge                     :                     0
          spin                       :                   0.0

   ID    Z sym.   atoms
    1    8 O      1
    2    6 C      2
    3    1 H      3, 4

          :  Hamiltonian                  GFN2-xTB          :
 * total energy  :    -7.1066246 Eh     change       -0.2208900E-09 Eh
 * total energy  :    -7.1602081 Eh     change       -0.5358343E-01 Eh
 * total energy  :    -7.1514951 Eh     change        0.8712913E-02 Eh
 * total energy  :    -7.1746851 Eh     change       -0.2319001E-01 Eh
 * total energy  :    -7.1755256 Eh     change       -0.8404603E-03 Eh
 * total energy  :    -7.1756407 Eh     change       -0.1150710E-03 Eh
 * total energy  :    -7.1756475 Eh     change       -0.6789013E-05 Eh
 * total energy  :    -7.1756480 Eh     change       -0.5794614E-06 Eh
   *** GEOMETRY OPTIMIZATION CONVERGED AFTER 8 ITERATIONS ***

 final structure:
================
4
 xtb: 6.2.2 (9d81278992624c895f80dd42a50cac0aa55982e2)
O         1.18656516059426   -0.12299808777795    0.01790367448424
C         0.00083773091157   -0.00008710525084    0.00006690301665
H        -0.49816855204057    0.98381137861909   -0.00444549924190
H        -0.68923433946526   -0.86072618559030   -0.01352607825900

          :  Hamiltonian                  GFN2-xTB          :
         :: gradient norm              0.000294864894 Eh/a0 ::
         :: HOMO-LUMO gap              3.619273215748 eV    ::
         :: SCC energy                -7.247812496646 Eh    ::
         :: -> dispersion             -0.000687757127 Eh    ::
         :: repulsion energy           0.072164442762 Eh    ::

    * Orbital Energies and Occupations

         #    Occupation            Energy/Eh            Energy/eV
      -------------------------------------------------------------
         1        2.0000           -0.7392347             -20.1156
         2        2.0000           -0.6346252             -17.2690
         3        2.0000           -0.5856786             -15.9371
         4        2.0000           -0.5579837             -15.1835
         5        2.0000           -0.5437062             -14.7950
         6        2.0000           -0.4238833             -11.5345 (HOMO)
         7                         -0.2908774              -7.9152 (LUMO)
         8                          0.0839532               2.2845
         9                          0.2179360               5.9303
        10                          0.5817409              15.8300
      -------------------------------------------------------------
                  HL-Gap            0.1330059 Eh            3.6193 eV

     #   Z        covCN         q      C6AA      Î±(0)
     1   8 O      0.856    -0.268    19.213     5.877
     2   6 C      2.701     0.184    24.057     8.028
     3   1 H      0.923     0.042     2.420     2.433
     4   1 H      0.923     0.042     2.420     2.433

Wiberg/Mayer (AO) data.
largest (>0.10) Wiberg bond orders for each atom
          total WBO             WBO to atom ...

molecular dipole:
                 x           y           z       tot (Debye)
 q only:       -0.695       0.072      -0.010
   full:       -0.914       0.095      -0.014       2.335

 projected vibrational frequencies (cm-1)
eigval :       -0.00    -0.00    -0.00     0.00     0.00     0.00
eigval :     1085.69  1202.92  1489.54  1805.33  2791.52  2837.56

   temp. (K)  partition function   enthalpy   heat capacity  entropy
                                   cal/mol     cal/K/mol   cal/K/mol   J/K/mol
  10.00  VIB   1.00                    0.000      0.000     -0.000
         ROT   4.22                   29.809      2.981      5.843
         INT   4.22                   29.809      2.981      5.843
         TR   0.978E+24               49.681      4.968     19.257
         TOT                          79.4904     7.9490    25.0993   105.0156

       T/K    H(0)-H(T)+PV         H(T)/Eh          T*S/Eh         G(T)/Eh
   ------------------------------------------------------------------------
    298.15    0.382631E-02    0.293704E-01    0.248022E-01    0.456814E-02
    120.00    0.152013E-02    0.270642E-01    0.857600E-02    0.184882E-01
    100.00    0.126676E-02    0.268108E-01    0.691577E-02    0.198951E-01
     80.00    0.101341E-02    0.265575E-01    0.530655E-02    0.212509E-01
     60.00    0.760056E-03    0.263041E-01    0.376132E-02    0.225428E-01
     40.00    0.506704E-03    0.260508E-01    0.230216E-02    0.237486E-01
     20.00    0.253352E-03    0.257974E-01    0.975524E-03    0.248219E-01
     10.00    0.126676E-03    0.256708E-01    0.399983E-03    0.252708E-01 (used)
   ------------------------------------------------------------------------

         :::::::::::::::::::::::::::::::::::::::::::::::::::::
         ::                  THERMODYNAMIC                  ::
         :::::::::::::::::::::::::::::::::::::::::::::::::::::
         :: total free energy          -7.150377278684 Eh   ::
         ::.................................................::
         :: total energy               -7.175648049971 Eh   ::
         :: zero point energy           0.025544078632 Eh   ::
         :: G(RRHO) w/o ZPVE           -0.000273307345 Eh   ::
         :: G(RRHO) contrib.            0.025270771288 Eh   ::
         :::::::::::::::::::::::::::::::::::::::::::::::::::::

           -------------------------------------------------
          | TOTAL ENERGY               -7.175648049971 Eh   |
          | TOTAL ENTHALPY             -7.149977295323 Eh   |
          | TOTAL FREE ENERGY          -7.150377278684 Eh   |
          | GRADIENT NORM               0.000294840036 Eh/Î± |
          | HOMO-LUMO GAP               3.619273992237 eV   |
           -------------------------------------------------

 * finished run on 2020/05/12 at 11:45:07.376
