   * xtb version 6.2.2 (9d81278992624c895f80dd42a50cac0aa55982e2) compiled by '@Darwin' on 04/03/2020
          program call               : xtb --input H1C3N1_29_S_0.input H1C3N1_29_S_0.xyz --ohess --molden --namespace H1C3N1_29_S_0 output.out
          number of atoms            :                     5
          number of electrons        :                    18
          charge                     :                     0
          spin                       :                   0.0

   ID    Z sym.   atoms
    1    7 N      1
    2    6 C      2-4
    3    1 H      5

          :  Hamiltonian                  GFN2-xTB          :
 * total energy  :    -9.4843150 Eh     change        0.4369873E-09 Eh
 * total energy  :    -9.5164690 Eh     change       -0.3215399E-01 Eh
 * total energy  :    -9.5333146 Eh     change       -0.1684559E-01 Eh
 * total energy  :    -9.5373634 Eh     change       -0.4048793E-02 Eh
 * total energy  :    -9.5389937 Eh     change       -0.1630310E-02 Eh
 * total energy  :    -9.5396055 Eh     change       -0.6118080E-03 Eh
 * total energy  :    -9.5396887 Eh     change       -0.8326336E-04 Eh
 * total energy  :    -9.5397019 Eh     change       -0.1319068E-04 Eh
 * total energy  :    -9.5397041 Eh     change       -0.2222810E-05 Eh
   *** GEOMETRY OPTIMIZATION CONVERGED AFTER 9 ITERATIONS ***

 final structure:
================
5
 xtb: 6.2.2 (9d81278992624c895f80dd42a50cac0aa55982e2)
N        -0.79255085081851    0.23970539095601    0.19994023733126
C         0.38449495413244   -0.41674381046295    0.63253737828227
C         1.55335228893954   -0.04735780912511   -0.04781385267292
C         0.37753570358839    0.53730696400077   -0.53888836971467
H        -1.52283209584186   -0.31291073536872   -0.24577439322594

          :  Hamiltonian                  GFN2-xTB          :
         :: gradient norm              0.000703576415 Eh/a0 ::
         :: HOMO-LUMO gap              2.080684829311 eV    ::
         :: SCC energy                -9.663926037182 Eh    ::
         :: -> dispersion             -0.002082358238 Eh    ::
         :: repulsion energy           0.124221885036 Eh    ::

    * Orbital Energies and Occupations

         #    Occupation            Energy/Eh            Energy/eV
      -------------------------------------------------------------
         1        2.0000           -0.7398310             -20.1318
         2        2.0000           -0.6613037             -17.9950
         3        2.0000           -0.6043014             -16.4439
         4        2.0000           -0.5982368             -16.2789
         5        2.0000           -0.5427883             -14.7700
         6        2.0000           -0.5298767             -14.4187
         7        2.0000           -0.4456589             -12.1270
         8        2.0000           -0.4270835             -11.6215
         9        2.0000           -0.4085342             -11.1168 (HOMO)
        10                         -0.3320705              -9.0361 (LUMO)
        11                         -0.2831300              -7.7044
        12                         -0.2338925              -6.3645
        13                          0.0235547               0.6410
        14                          0.1249278               3.3995
        15                          0.2080416               5.6611
        16                          0.2183996               5.9430
        17                          0.4112655              11.1911
      -------------------------------------------------------------
                  HL-Gap            0.0764638 Eh            2.0807 eV

     #   Z        covCN         q      C6AA      Î±(0)
     1   7 N      2.686    -0.156    24.368     7.331
     2   6 C      2.865     0.070    26.422     8.426
     3   6 C      1.969    -0.153    35.398     9.608
     4   6 C      2.865     0.070    26.423     8.426
     5   1 H      0.860     0.168     1.287     1.777

Wiberg/Mayer (AO) data.
largest (>0.10) Wiberg bond orders for each atom
          total WBO             WBO to atom ...

molecular dipole:
                 x           y           z       tot (Debye)
 q only:       -0.596      -0.140      -0.110
   full:       -1.312      -0.311      -0.245       3.482

 projected vibrational frequencies (cm-1)
eigval :       -0.00    -0.00    -0.00    -0.00     0.00     0.00
eigval :      368.01   439.94   555.65   893.62   961.30  1064.08
eigval :     1355.62  1504.89  3293.97

   temp. (K)  partition function   enthalpy   heat capacity  entropy
                                   cal/mol     cal/K/mol   cal/K/mol   J/K/mol
  10.00  VIB   1.00                    0.000      0.000     -0.001
         ROT   82.4                   29.809      2.981     11.748
         INT   82.4                   29.809      2.981     11.747
         TR   0.217E+25               49.681      4.968     20.838
         TOT                          79.4904     7.9490    32.5844   136.3332

       T/K    H(0)-H(T)+PV         H(T)/Eh          T*S/Eh         G(T)/Eh
   ------------------------------------------------------------------------
    298.15    0.471777E-02    0.284952E-01    0.296341E-01   -0.113886E-02
    120.00    0.155440E-02    0.253318E-01    0.100490E-01    0.152828E-01
    100.00    0.127967E-02    0.250571E-01    0.812398E-02    0.169331E-01
     80.00    0.101650E-02    0.247939E-01    0.626450E-02    0.185294E-01
     60.00    0.760359E-03    0.245378E-01    0.447745E-02    0.200603E-01
     40.00    0.506707E-03    0.242841E-01    0.277935E-02    0.215048E-01
     20.00    0.253352E-03    0.240308E-01    0.121410E-02    0.228167E-01
     10.00    0.126676E-03    0.239041E-01    0.519266E-03    0.233848E-01 (used)
   ------------------------------------------------------------------------

         :::::::::::::::::::::::::::::::::::::::::::::::::::::
         ::                  THERMODYNAMIC                  ::
         :::::::::::::::::::::::::::::::::::::::::::::::::::::
         :: total free energy          -9.516319313374 Eh   ::
         ::.................................................::
         :: total energy               -9.539704150387 Eh   ::
         :: zero point energy           0.023777426735 Eh   ::
         :: G(RRHO) w/o ZPVE           -0.000392589722 Eh   ::
         :: G(RRHO) contrib.            0.023384837013 Eh   ::
         :::::::::::::::::::::::::::::::::::::::::::::::::::::

           -------------------------------------------------
          | TOTAL ENERGY               -9.539704150387 Eh   |
          | TOTAL ENTHALPY             -9.515800047636 Eh   |
          | TOTAL FREE ENERGY          -9.516319313374 Eh   |
          | GRADIENT NORM               0.000703540859 Eh/Î± |
          | HOMO-LUMO GAP               2.080684728862 eV   |
           -------------------------------------------------

 * finished run on 2020/05/12 at 11:45:01.610
