   * xtb version 6.2.2 (9d81278992624c895f80dd42a50cac0aa55982e2) compiled by '@Darwin' on 04/03/2020
          program call               : xtb --input H1C3N1_11_S_0.input H1C3N1_11_S_0.xyz --ohess --molden --namespace H1C3N1_11_S_0 output.out
          number of atoms            :                     5
          number of electrons        :                    18
          charge                     :                     0
          spin                       :                   0.0

   ID    Z sym.   atoms
    1    6 C      1, 3, 4
    2    7 N      2
    3    1 H      5

          :  Hamiltonian                  GFN2-xTB          :
 * total energy  :    -9.4244581 Eh     change       -0.2786411E-09 Eh
 * total energy  :    -9.5271840 Eh     change       -0.1027258E+00 Eh
 * total energy  :    -9.5376881 Eh     change       -0.1050413E-01 Eh
 * total energy  :    -9.5783795 Eh     change       -0.4069138E-01 Eh
 * total energy  :    -9.5789966 Eh     change       -0.6171350E-03 Eh
 * total energy  :    -9.5900092 Eh     change       -0.1101254E-01 Eh
 * total energy  :    -9.5920306 Eh     change       -0.2021476E-02 Eh
 * total energy  :    -9.5951896 Eh     change       -0.3158962E-02 Eh
 * total energy  :    -9.5960744 Eh     change       -0.8848213E-03 Eh
 * total energy  :    -9.5965452 Eh     change       -0.4707790E-03 Eh
 * total energy  :    -9.5972139 Eh     change       -0.1865767E-03 Eh
 * total energy  :    -9.5973010 Eh     change       -0.8712958E-04 Eh
 * total energy  :    -9.5973363 Eh     change       -0.3528718E-04 Eh
 * total energy  :    -9.5973503 Eh     change       -0.1403509E-04 Eh
 * total energy  :    -9.5973651 Eh     change       -0.1475837E-04 Eh
 * total energy  :    -9.5973744 Eh     change       -0.9274769E-05 Eh
 * total energy  :    -9.5973776 Eh     change       -0.3214854E-05 Eh
 * total energy  :    -9.5973811 Eh     change       -0.3556933E-05 Eh
 * total energy  :    -9.5973841 Eh     change       -0.2987006E-05 Eh
   *** GEOMETRY OPTIMIZATION CONVERGED AFTER 20 ITERATIONS ***

 final structure:
================
5
 xtb: 6.2.2 (9d81278992624c895f80dd42a50cac0aa55982e2)
C         1.99914681080823   -0.51494514537474    0.11827015301718
N         0.86593123997221   -0.23789342484088    0.05601419453687
C        -0.39865160789153    0.18088137498905   -0.05162047506010
C        -1.24636053037025    1.09953539229286   -0.34857738279324
H        -1.22006491251864   -0.52757719706629    0.22591351029929

          :  Hamiltonian                  GFN2-xTB          :
         :: gradient norm              0.000743541033 Eh/a0 ::
         :: HOMO-LUMO gap              2.954494238461 eV    ::
         :: SCC energy                -9.789351135140 Eh    ::
         :: -> dispersion             -0.002158531985 Eh    ::
         :: repulsion energy           0.191967020951 Eh    ::

    * Orbital Energies and Occupations

         #    Occupation            Energy/Eh            Energy/eV
      -------------------------------------------------------------
         1        2.0000           -0.6956280             -18.9290
         2        2.0000           -0.6800064             -18.5039
         3        2.0000           -0.6391972             -17.3934
         4        2.0000           -0.5782878             -15.7360
         5        2.0000           -0.5474156             -14.8959
         6        2.0000           -0.5053160             -13.7503
         7        2.0000           -0.4616313             -12.5616
         8        2.0000           -0.4474682             -12.1762
         9        2.0000           -0.4371674             -11.8959 (HOMO)
        10                         -0.3285917              -8.9414 (LUMO)
        11                         -0.2850118              -7.7556
        12                         -0.2436747              -6.6307
        13                         -0.1673759              -4.5545
        14                          0.0687050               1.8696
        15                          0.1208701               3.2890
        16                          0.6764428              18.4069
        17                          1.0791221              29.3644
      -------------------------------------------------------------
                  HL-Gap            0.1085757 Eh            2.9545 eV

     #   Z        covCN         q      C6AA      Î±(0)
     1   6 C      0.914    -0.124    39.421    10.509
     2   7 N      1.821     0.041    21.186     6.820
     3   6 C      2.814     0.058    26.695     8.465
     4   6 C      0.994    -0.153    41.036    10.766
Molecule has the following symmetry elements: (sigma)
It seems to be the Cs point group
     5   1 H      0.932     0.179     1.212     1.722

Wiberg/Mayer (AO) data.
largest (>0.10) Wiberg bond orders for each atom
          total WBO             WBO to atom ...

molecular dipole:
                 x           y           z       tot (Debye)
 q only:       -0.496      -0.375       0.148
   full:       -0.580      -0.622       0.238       2.244

 projected vibrational frequencies (cm-1)
eigval :       -0.00    -0.00    -0.00     0.00     0.00     0.00
eigval :      158.87   283.13   338.22   574.22   784.05   961.49
eigval :     1805.92  2172.54  2684.08

   temp. (K)  partition function   enthalpy   heat capacity  entropy
                                   cal/mol     cal/K/mol   cal/K/mol   J/K/mol
  10.00  VIB   1.00                    0.000      0.000     -0.012
         ROT   83.7                   29.809      2.981     11.778
         INT   83.7                   29.809      2.981     11.766
         TR   0.217E+25               49.681      4.968     20.838
         TOT                          79.4904     7.9490    32.6042   136.4159

       T/K    H(0)-H(T)+PV         H(T)/Eh          T*S/Eh         G(T)/Eh
   ------------------------------------------------------------------------
    298.15    0.552338E-02    0.277640E-01    0.312269E-01   -0.346292E-02
    120.00    0.172170E-02    0.239623E-01    0.102974E-01    0.136649E-01
    100.00    0.138373E-02    0.236244E-01    0.827359E-02    0.153508E-01
     80.00    0.106910E-02    0.233097E-01    0.633853E-02    0.169712E-01
     60.00    0.778379E-03    0.230190E-01    0.450347E-02    0.185155E-01
     40.00    0.509156E-03    0.227498E-01    0.278439E-02    0.199654E-01
     20.00    0.253360E-03    0.224940E-01    0.121497E-02    0.212790E-01
     10.00    0.126676E-03    0.223673E-01    0.519581E-03    0.218477E-01 (used)
   ------------------------------------------------------------------------

         :::::::::::::::::::::::::::::::::::::::::::::::::::::
         ::                  THERMODYNAMIC                  ::
         :::::::::::::::::::::::::::::::::::::::::::::::::::::
         :: total free energy          -9.575536406478 Eh   ::
         ::.................................................::
         :: total energy               -9.597384129425 Eh   ::
         :: zero point energy           0.022240627595 Eh   ::
         :: G(RRHO) w/o ZPVE           -0.000392904648 Eh   ::
         :: G(RRHO) contrib.            0.021847722947 Eh   ::
         :::::::::::::::::::::::::::::::::::::::::::::::::::::

           -------------------------------------------------
          | TOTAL ENERGY               -9.597384129425 Eh   |
          | TOTAL ENTHALPY             -9.575016825815 Eh   |
          | TOTAL FREE ENERGY          -9.575536406478 Eh   |
          | GRADIENT NORM               0.000743539959 Eh/Î± |
          | HOMO-LUMO GAP               2.954495319696 eV   |
           -------------------------------------------------

 * finished run on 2020/05/12 at 11:44:54.597
