   * xtb version 6.2.2 (9d81278992624c895f80dd42a50cac0aa55982e2) compiled by '@Darwin' on 04/03/2020
          program call               : xtb --input C5_15_S_2.input C5_15_S_2.xyz --ohess --molden --namespace C5_15_S_2 output.out
          number of atoms            :                     5
          number of electrons        :                    20
          charge                     :                     0
          spin                       :                   1.0

   ID    Z sym.   atoms
    1    6 C      1-5

          :  Hamiltonian                  GFN2-xTB          :
 * total energy  :   -10.0623033 Eh     change        0.2018794E-08 Eh
 * total energy  :   -10.0947238 Eh     change       -0.3242057E-01 Eh
 * total energy  :   -10.1122335 Eh     change       -0.1750963E-01 Eh
 * total energy  :   -10.1156991 Eh     change       -0.3465617E-02 Eh
 * total energy  :   -10.1243938 Eh     change       -0.8694671E-02 Eh
 * total energy  :   -10.1539866 Eh     change       -0.2959287E-01 Eh
 * total energy  :   -10.1651066 Eh     change       -0.1111994E-01 Eh
 * total energy  :   -10.1689531 Eh     change       -0.3846567E-02 Eh
 * total energy  :   -10.1704168 Eh     change       -0.1463724E-02 Eh
 * total energy  :   -10.1707861 Eh     change       -0.3692470E-03 Eh
 * total energy  :   -10.1754696 Eh     change       -0.3565140E-02 Eh
 * total energy  :   -10.1776487 Eh     change       -0.2179084E-02 Eh
 * total energy  :   -10.1628575 Eh     change        0.1479119E-01 Eh
 * total energy  :   -10.1796018 Eh     change       -0.1674427E-01 Eh
 * total energy  :   -10.1802162 Eh     change       -0.6143566E-03 Eh
 * total energy  :   -10.1806069 Eh     change       -0.3907764E-03 Eh
 * total energy  :   -10.1806345 Eh     change       -0.2755507E-04 Eh
 * total energy  :   -10.1806492 Eh     change       -0.1469521E-04 Eh
 * total energy  :   -10.1806500 Eh     change       -0.7680279E-06 Eh
   *** GEOMETRY OPTIMIZATION CONVERGED AFTER 22 ITERATIONS ***

 final structure:
================
5
 xtb: 6.2.2 (9d81278992624c895f80dd42a50cac0aa55982e2)
C        -1.05604890790783   -0.31854738582635    0.01261833137166
C         0.09849576538346   -0.37876420850652    0.92127715682219
C         0.07903173614676   -0.38703967698355   -0.91972071983541
C        -0.21024018972430    0.90752770586991   -0.00189054355783
C         1.08876259610191    0.17682356544650   -0.01228422480060

          :  Hamiltonian                  GFN2-xTB          :
         :: gradient norm              0.000297874677 Eh/a0 ::
         :: HOMO-LUMO gap              2.316667755673 eV    ::
         :: SCC energy               -10.312455691956 Eh    ::
         :: -> dispersion             -0.002369580395 Eh    ::
         :: repulsion energy           0.131805726920 Eh    ::

    * Orbital Energies and Occupations

         #    Occupation            Energy/Eh            Energy/eV
      -------------------------------------------------------------
         1        2.0000           -0.7653219             -20.8255
         2        2.0000           -0.6588565             -17.9284
         3        2.0000           -0.6406723             -17.4336
         4        2.0000           -0.6188436             -16.8396
         5        2.0000           -0.5315085             -14.4631
         6        2.0000           -0.5104960             -13.8913
         7        2.0000           -0.4909696             -13.3600
         8        2.0000           -0.4702905             -12.7973
         9        1.9913           -0.4650368             -12.6543
        10        1.0087           -0.4560368             -12.4094
        11        1.0000           -0.4075938             -11.0912 (HOMO)
        12                         -0.3224578              -8.7745 (LUMO)
        13                         -0.2463127              -6.7025
        14                         -0.2071497              -5.6368
        15                         -0.0380274              -1.0348
        16                          0.0517573               1.4084
        17                          0.0605608               1.6479
        18                          0.1023071               2.7839
        19                          0.2112589               5.7486
        20                          0.3581163               9.7448
      -------------------------------------------------------------
                  HL-Gap            0.0851360 Eh            2.3167 eV

     #   Z        covCN         q      C6AA      Î±(0)
     1   6 C      3.074    -0.016    28.333     8.727
     2   6 C      3.703    -0.026    21.189     6.582
     3   6 C      3.703    -0.026    21.189     6.582
     4   6 C      3.877     0.084    19.147     6.221
     5   6 C      3.074    -0.016    28.332     8.727

Wiberg/Mayer (AO) data.
largest (>0.10) Wiberg bond orders for each atom
          total WBO             WBO to atom ...

molecular dipole:
                 x           y           z       tot (Debye)
 q only:       -0.043       0.185      -0.000
   full:       -0.134       0.584      -0.001       1.523

 projected vibrational frequencies (cm-1)
eigval :       -0.00    -0.00    -0.00     0.00     0.00     0.00
eigval :       70.81   323.10   613.70   794.67   910.02   940.17
eigval :     1022.59  1271.08  1407.90

   temp. (K)  partition function   enthalpy   heat capacity  entropy
                                   cal/mol     cal/K/mol   cal/K/mol   J/K/mol
  10.00  VIB   1.00                    0.008      0.008     -0.037
         ROT   63.9                   29.809      2.981     11.243
         INT   63.9                   29.817      2.989     11.207
         TR   0.277E+25               49.681      4.968     21.322
         TOT                          79.4980     7.9568    32.5289   136.1011

       T/K    H(0)-H(T)+PV         H(T)/Eh          T*S/Eh         G(T)/Eh
   ------------------------------------------------------------------------
    298.15    0.534539E-02    0.220991E-01    0.312675E-01   -0.916841E-02
    120.00    0.179481E-02    0.185486E-01    0.104958E-01    0.805276E-02
    100.00    0.146375E-02    0.182175E-01    0.844986E-02    0.976763E-02
     80.00    0.114326E-02    0.178970E-01    0.647853E-02    0.114185E-01
     60.00    0.832984E-03    0.175867E-01    0.459504E-02    0.129917E-01
     40.00    0.534132E-03    0.172879E-01    0.282349E-02    0.144644E-01
     20.00    0.255343E-03    0.170091E-01    0.121859E-02    0.157905E-01
     10.00    0.126688E-03    0.168804E-01    0.518382E-03    0.163620E-01 (used)
   ------------------------------------------------------------------------

         :::::::::::::::::::::::::::::::::::::::::::::::::::::
         ::                  THERMODYNAMIC                  ::
         :::::::::::::::::::::::::::::::::::::::::::::::::::::
         :: total free energy         -10.164287904677 Eh   ::
         ::.................................................::
         :: total energy              -10.180649951657 Eh   ::
         :: zero point energy           0.016753740581 Eh   ::
         :: G(RRHO) w/o ZPVE           -0.000391693600 Eh   ::
         :: G(RRHO) contrib.            0.016362046980 Eh   ::
         :::::::::::::::::::::::::::::::::::::::::::::::::::::

           -------------------------------------------------
          | TOTAL ENERGY              -10.180649951657 Eh   |
          | TOTAL ENTHALPY            -10.163769522925 Eh   |
          | TOTAL FREE ENERGY         -10.164287904677 Eh   |
          | GRADIENT NORM               0.000297889392 Eh/Î± |
          | HOMO-LUMO GAP               2.316667565818 eV   |
           -------------------------------------------------

 * finished run on 2020/05/12 at 11:44:38.335
