   * xtb version 6.2.2 (9d81278992624c895f80dd42a50cac0aa55982e2) compiled by '@Darwin' on 04/03/2020
          program call               : xtb --input H2C3_3_S_2.input H2C3_3_S_2.xyz --ohess --molden --namespace H2C3_3_S_2 output.out
          number of atoms            :                     5
          number of electrons        :                    14
          charge                     :                     0
          spin                       :                   1.0

   ID    Z sym.   atoms
    1    6 C      1-3
    2    1 H      4, 5

          :  Hamiltonian                  GFN2-xTB          :
 * total energy  :    -7.0593033 Eh     change       -0.7639391E-09 Eh
 * total energy  :    -7.1407822 Eh     change       -0.8147891E-01 Eh
 * total energy  :    -7.1675843 Eh     change       -0.2680215E-01 Eh
 * total energy  :    -7.1919888 Eh     change       -0.2440450E-01 Eh
 * total energy  :    -7.1974130 Eh     change       -0.5424203E-02 Eh
 * total energy  :    -7.1932994 Eh     change        0.4113677E-02 Eh
 * total energy  :    -7.2069665 Eh     change       -0.1366715E-01 Eh
 * total energy  :    -7.2082127 Eh     change       -0.1246219E-02 Eh
 * total energy  :    -7.2107339 Eh     change       -0.2521185E-02 Eh
 * total energy  :    -7.2112463 Eh     change       -0.5124191E-03 Eh
 * total energy  :    -7.2141547 Eh     change       -0.6994199E-05 Eh
 * total energy  :    -7.2141635 Eh     change       -0.8759636E-05 Eh
 * total energy  :    -7.2141785 Eh     change       -0.1502371E-04 Eh
 * total energy  :    -7.2142033 Eh     change       -0.2480799E-04 Eh
 * total energy  :    -7.2142142 Eh     change       -0.1094840E-04 Eh
 * total energy  :    -7.2142196 Eh     change       -0.5399851E-05 Eh
 * total energy  :    -7.2142348 Eh     change       -0.1518268E-04 Eh
 * total energy  :    -7.2142384 Eh     change       -0.3604556E-05 Eh
 * total energy  :    -7.2142406 Eh     change       -0.2164176E-05 Eh
   *** GEOMETRY OPTIMIZATION CONVERGED AFTER 27 ITERATIONS ***

 final structure:
================
5
 xtb: 6.2.2 (9d81278992624c895f80dd42a50cac0aa55982e2)
C        -0.00018506886402    0.00525655378914   -0.11101854712805
C         1.20916457319040   -0.13405086235339   -0.44278976547862
C        -1.20940380691855    0.02739564328036    0.24883561469337
H         2.20582432331724   -0.10110525348635   -0.76357208330541
H        -2.20540002072506    0.20250291877025    0.52208078121869

          :  Hamiltonian                  GFN2-xTB          :
         :: gradient norm              0.000808344327 Eh/a0 ::
         :: HOMO-LUMO gap              5.887464553166 eV    ::
         :: SCC energy                -7.412281578062 Eh    ::
         :: -> dispersion             -0.001549025689 Eh    ::
         :: repulsion energy           0.198041252478 Eh    ::

    * Orbital Energies and Occupations

         #    Occupation            Energy/Eh            Energy/eV
      -------------------------------------------------------------
         1        2.0000           -0.6176829             -16.8080
         2        2.0000           -0.5831998             -15.8697
         3        2.0000           -0.5222895             -14.2122
         4        2.0000           -0.4858766             -13.2214
         5        2.0000           -0.4495384             -12.2326
         6        2.0000           -0.4494111             -12.2291
         7        1.0000           -0.3255056              -8.8575
         8        1.0000           -0.3245331              -8.8310 (HOMO)
         9                         -0.1081729              -2.9435 (LUMO)
        10                         -0.1048446              -2.8530
        11                          0.0549818               1.4961
        12                          0.2243581               6.1051
        13                          0.7191346              19.5686
        14                          1.4306696              38.9305
      -------------------------------------------------------------
                  HL-Gap            0.2163603 Eh            5.8875 eV

     #   Z        covCN         q      C6AA      Î±(0)
     1   6 C      1.962     0.019    30.569     8.929
     2   6 C      1.912    -0.090    33.575     9.358
     3   6 C      1.912    -0.090    33.576     9.358
     4   1 H      0.928     0.080     1.977     2.199
     5   1 H      0.928     0.080     1.977     2.199

Wiberg/Mayer (AO) data.
largest (>0.10) Wiberg bond orders for each atom
          total WBO             WBO to atom ...

molecular dipole:
                 x           y           z       tot (Debye)
 q only:        0.000       0.034      -0.008
   full:        0.000       0.074      -0.017       0.192

 projected vibrational frequencies (cm-1)
eigval :       -0.00    -0.00    -0.00    -0.00    -0.00     0.00
eigval :      192.83   278.73   297.33   426.11   443.70  1351.80
eigval :     1896.82  3387.09  3395.86

   temp. (K)  partition function   enthalpy   heat capacity  entropy
                                   cal/mol     cal/K/mol   cal/K/mol   J/K/mol
  10.00  VIB   1.00                    0.000      0.000     -0.009
         ROT   2.39                   29.809      2.981      4.716
         INT   2.39                   29.809      2.981      4.707
         TR   0.139E+25               49.681      4.968     19.962
         TOT                          79.4904     7.9490    24.6696   103.2177

       T/K    H(0)-H(T)+PV         H(T)/Eh          T*S/Eh         G(T)/Eh
   ------------------------------------------------------------------------
    298.15    0.578389E-02    0.323707E-01    0.278155E-01    0.455519E-02
    120.00    0.172449E-02    0.283113E-01    0.876903E-02    0.195423E-01
    100.00    0.137538E-02    0.279622E-01    0.698978E-02    0.209724E-01
     80.00    0.105827E-02    0.276451E-01    0.530934E-02    0.223358E-01
     60.00    0.771560E-03    0.273584E-01    0.373510E-02    0.236233E-01
     40.00    0.507647E-03    0.270945E-01    0.227643E-02    0.248181E-01
     20.00    0.253353E-03    0.268402E-01    0.961975E-03    0.258782E-01
     10.00    0.126676E-03    0.267135E-01    0.393136E-03    0.263204E-01 (used)
   ------------------------------------------------------------------------

         :::::::::::::::::::::::::::::::::::::::::::::::::::::
         ::                  THERMODYNAMIC                  ::
         :::::::::::::::::::::::::::::::::::::::::::::::::::::
         :: total free energy          -7.187920218946 Eh   ::
         ::.................................................::
         :: total energy               -7.214240596406 Eh   ::
         :: zero point energy           0.026586837001 Eh   ::
         :: G(RRHO) w/o ZPVE           -0.000266459540 Eh   ::
         :: G(RRHO) contrib.            0.026320377461 Eh   ::
         :::::::::::::::::::::::::::::::::::::::::::::::::::::

           -------------------------------------------------
          | TOTAL ENERGY               -7.214240596406 Eh   |
          | TOTAL ENTHALPY             -7.187527083390 Eh   |
          | TOTAL FREE ENERGY          -7.187920218946 Eh   |
          | GRADIENT NORM               0.000808333079 Eh/Î± |
          | HOMO-LUMO GAP               5.887463394741 eV   |
           -------------------------------------------------

 * finished run on 2020/05/12 at 11:44:26.836
