   * xtb version 6.2.2 (9d81278992624c895f80dd42a50cac0aa55982e2) compiled by '@Darwin' on 04/03/2020
          program call               : xtb --input C4N1_49_S_1.input C4N1_49_S_1.xyz --ohess --molden --namespace C4N1_49_S_1 output.out
          number of atoms            :                     5
          number of electrons        :                    21
          charge                     :                     0
          spin                       :                   0.5

   ID    Z sym.   atoms
    1    6 C      1-4
    2    7 N      5

          :  Hamiltonian                  GFN2-xTB          :
 * total energy  :   -11.0034367 Eh     change       -0.1415547E-08 Eh
 * total energy  :   -11.0232935 Eh     change       -0.1985679E-01 Eh
 * total energy  :   -11.0276458 Eh     change       -0.4352250E-02 Eh
 * total energy  :   -11.0287683 Eh     change       -0.1122524E-02 Eh
 * total energy  :   -11.0288676 Eh     change       -0.9935418E-04 Eh
 * total energy  :   -11.0289160 Eh     change       -0.4831700E-04 Eh
 * total energy  :   -11.0289183 Eh     change       -0.2322124E-05 Eh
   *** GEOMETRY OPTIMIZATION CONVERGED AFTER 7 ITERATIONS ***

 final structure:
================
5
 xtb: 6.2.2 (9d81278992624c895f80dd42a50cac0aa55982e2)
C         0.21613268313123    0.85778262337242   -0.06176469692214
C        -0.83677172777994   -0.03770184861002   -0.70191394105519
C         0.19397483343845   -0.86336703472144    0.05731225987039
C        -0.82002691281499    0.06027205885811    0.71986250644936
N         1.24669112402525   -0.01698579889906   -0.01349612834241

          :  Hamiltonian                  GFN2-xTB          :
         :: gradient norm              0.000476642390 Eh/a0 ::
         :: HOMO-LUMO gap              1.952543663137 eV    ::
         :: SCC energy               -11.161980235007 Eh    ::
         :: -> dispersion             -0.002491105898 Eh    ::
         :: repulsion energy           0.133061930277 Eh    ::

    * Orbital Energies and Occupations

         #    Occupation            Energy/Eh            Energy/eV
      -------------------------------------------------------------
         1        2.0000           -0.7689267             -20.9236
         2        2.0000           -0.6889558             -18.7474
         3        2.0000           -0.6354291             -17.2909
         4        2.0000           -0.6217981             -16.9200
         5        2.0000           -0.5763963             -15.6845
         6        2.0000           -0.5462205             -14.8634
         7        2.0000           -0.5000065             -13.6059
         8        2.0000           -0.4722391             -12.8503
         9        2.0000           -0.4581802             -12.4677
        10        1.9566           -0.4480814             -12.1929
        11        1.0434           -0.4422037             -12.0330 (HOMO)
        12                         -0.3704493             -10.0804 (LUMO)
        13                         -0.3522928              -9.5864
        14                         -0.1332864              -3.6269
        15                         -0.0908281              -2.4716
        16                          0.0336758               0.9164
        17                          0.0939613               2.5568
        18                          0.1491594               4.0588
        19                          0.2840768               7.7301
        20                          0.3337203               9.0810
      -------------------------------------------------------------
                  HL-Gap            0.0717544 Eh            1.9525 eV

     #   Z        covCN         q      C6AA      Î±(0)
     1   6 C      3.770     0.063    19.556     6.302
     2   6 C      3.011    -0.003    28.091     8.694
     3   6 C      3.770     0.063    19.556     6.302
     4   6 C      3.011    -0.003    28.091     8.694
     5   7 N      1.981    -0.119    24.331     7.315

Wiberg/Mayer (AO) data.
largest (>0.10) Wiberg bond orders for each atom
          total WBO             WBO to atom ...

molecular dipole:
                 x           y           z       tot (Debye)
Molecule has the following symmetry elements: (C2) 2*(sigma)
It seems to be the C2v point group
 q only:       -0.222       0.003       0.002
   full:       -0.388       0.005       0.004       0.987

 projected vibrational frequencies (cm-1)
eigval :       -0.00    -0.00    -0.00    -0.00     0.00     0.00
eigval :    -1016.76   241.58   726.05   794.10   851.15   905.69
eigval :      964.68  1399.31  1449.88

   temp. (K)  partition function   enthalpy   heat capacity  entropy
                                   cal/mol     cal/K/mol   cal/K/mol   J/K/mol
  10.00  VIB   1.00                    0.000      0.000     -0.003
         ROT   69.7                   29.809      2.981     11.414
         INT   69.7                   29.809      2.981     11.411
         TR   0.290E+25               49.681      4.968     21.419
         TOT                          79.4904     7.9490    32.8308   137.3641

       T/K    H(0)-H(T)+PV         H(T)/Eh          T*S/Eh         G(T)/Eh
   ------------------------------------------------------------------------
    298.15    0.463145E-02    0.213360E-01    0.297144E-01   -0.837846E-02
    120.00    0.158552E-02    0.182901E-01    0.101423E-01    0.814771E-02
    100.00    0.130207E-02    0.180066E-01    0.819374E-02    0.981286E-02
     80.00    0.102789E-02    0.177324E-01    0.631048E-02    0.114219E-01
     60.00    0.763423E-03    0.174680E-01    0.450484E-02    0.129631E-01
     40.00    0.506889E-03    0.172114E-01    0.279537E-02    0.144161E-01
     20.00    0.253352E-03    0.169579E-01    0.122198E-02    0.157359E-01
     10.00    0.126676E-03    0.168312E-01    0.523192E-03    0.163080E-01 (used)
   ------------------------------------------------------------------------

         :::::::::::::::::::::::::::::::::::::::::::::::::::::
         ::                  THERMODYNAMIC                  ::
         :::::::::::::::::::::::::::::::::::::::::::::::::::::
         :: total free energy         -11.012610271754 Eh   ::
         ::.................................................::
         :: total energy              -11.028918286268 Eh   ::
         :: zero point energy           0.016704530871 Eh   ::
         :: G(RRHO) w/o ZPVE           -0.000396516357 Eh   ::
         :: G(RRHO) contrib.            0.016308014514 Eh   ::
         :::::::::::::::::::::::::::::::::::::::::::::::::::::

           -------------------------------------------------
          | TOTAL ENERGY              -11.028918286268 Eh   |
          | TOTAL ENTHALPY            -11.012087079382 Eh   |
          | TOTAL FREE ENERGY         -11.012610271754 Eh   |
          | GRADIENT NORM               0.000477144291 Eh/Î± |
          | HOMO-LUMO GAP               1.952537915590 eV   |
           -------------------------------------------------

 * finished run on 2020/05/12 at 11:44:20.508
