   * xtb version 6.2.2 (9d81278992624c895f80dd42a50cac0aa55982e2) compiled by '@Darwin' on 04/03/2020
          program call               : xtb --input H2C1N1_0_S_3.input H2C1N1_0_S_3.xyz --ohess --molden --namespace H2C1N1_0_S_3 output.out
          number of atoms            :                     4
          number of electrons        :                    11
          charge                     :                     0
          spin                       :                   1.5

   ID    Z sym.   atoms
    1    6 C      1
    2    7 N      2
    3    1 H      3, 4

          :  Hamiltonian                  GFN2-xTB          :
 * total energy  :    -5.7680900 Eh     change        0.3494449E-10 Eh
 * total energy  :    -5.7714426 Eh     change       -0.3352628E-02 Eh
 * total energy  :    -5.7724636 Eh     change       -0.1021033E-02 Eh
 * total energy  :    -5.7726204 Eh     change       -0.1568117E-03 Eh
 * total energy  :    -5.7726783 Eh     change       -0.5781314E-04 Eh
 * total energy  :    -5.7726790 Eh     change       -0.7258292E-06 Eh
   *** GEOMETRY OPTIMIZATION CONVERGED AFTER 6 ITERATIONS ***

 final structure:
================
4
 xtb: 6.2.2 (9d81278992624c895f80dd42a50cac0aa55982e2)
C        -0.08071719858398    0.00539860584459    0.30252290744779
N         1.21816590840619   -0.09654885303797   -0.06326294026823
H        -0.49765532625061    0.94029920362156   -0.11663515399866
H        -0.63979338357160   -0.84914995642818   -0.12262481318090

          :  Hamiltonian                  GFN2-xTB          :
         :: gradient norm              0.000315698392 Eh/a0 ::
         :: HOMO-LUMO gap             12.072366088217 eV    ::
         :: SCC energy                -5.825523057405 Eh    ::
         :: -> dispersion             -0.000705979195 Eh    ::
         :: repulsion energy           0.052844067845 Eh    ::

    * Orbital Energies and Occupations

         #    Occupation            Energy/Eh            Energy/eV
      -------------------------------------------------------------
         1        2.0000           -0.6419113             -17.4673
         2        2.0000           -0.5656287             -15.3915
         3        2.0000           -0.5199654             -14.1490
         4        1.9865           -0.4668319             -12.7031
         5        1.0135           -0.4586725             -12.4811
         6        1.0000           -0.3813661             -10.3775
         7        1.0000           -0.3060987              -8.3294 (HOMO)
         8                          0.1375526               3.7430 (LUMO)
         9                          0.1788152               4.8658
        10                          0.2448757               6.6634
      -------------------------------------------------------------
                  HL-Gap            0.4436513 Eh           12.0724 eV

     #   Z        covCN         q      C6AA      Î±(0)
     1   6 C      2.754    -0.049    29.201     8.849
     2   7 N      0.910    -0.160    24.459     7.153
     3   1 H      0.922     0.104     1.746     2.066
     4   1 H      0.922     0.104     1.746     2.066

Wiberg/Mayer (AO) data.
largest (>0.10) Wiberg bond orders for each atom
          total WBO             WBO to atom ...

molecular dipole:
                 x           y           z       tot (Debye)
 q only:       -0.584       0.047      -0.056
   full:       -0.751       0.060      -0.098       1.930

 projected vibrational frequencies (cm-1)
eigval :       -0.00    -0.00    -0.00     0.00     0.00     0.00
eigval :      784.15   974.04  1212.79  1279.47  2736.65  2738.58

   temp. (K)  partition function   enthalpy   heat capacity  entropy
                                   cal/mol     cal/K/mol   cal/K/mol   J/K/mol
  10.00  VIB   1.00                    0.000      0.000     -0.000
         ROT   10.3                   29.809      2.981      7.608
         INT   10.3                   29.809      2.981      7.608
         TR   0.882E+24               49.681      4.968     19.052
         TOT                          79.4904     7.9490    26.6596   111.5439

       T/K    H(0)-H(T)+PV         H(T)/Eh          T*S/Eh         G(T)/Eh
   ------------------------------------------------------------------------
    298.15    0.392880E-02    0.260855E-01    0.256724E-01    0.413120E-03
    120.00    0.152045E-02    0.236772E-01    0.887475E-02    0.148024E-01
    100.00    0.126681E-02    0.234235E-01    0.716448E-02    0.162590E-01
     80.00    0.101341E-02    0.231701E-01    0.550548E-02    0.176646E-01
     60.00    0.760056E-03    0.229168E-01    0.391052E-02    0.190062E-01
     40.00    0.506704E-03    0.226634E-01    0.240162E-02    0.202618E-01
     20.00    0.253352E-03    0.224101E-01    0.102525E-02    0.213848E-01
     10.00    0.126676E-03    0.222834E-01    0.424848E-03    0.218585E-01 (used)
   ------------------------------------------------------------------------

         :::::::::::::::::::::::::::::::::::::::::::::::::::::
         ::                  THERMODYNAMIC                  ::
         :::::::::::::::::::::::::::::::::::::::::::::::::::::
         :: total free energy          -5.750820448580 Eh   ::
         ::.................................................::
         :: total energy               -5.772678984995 Eh   ::
         :: zero point energy           0.022156708607 Eh   ::
         :: G(RRHO) w/o ZPVE           -0.000298172192 Eh   ::
         :: G(RRHO) contrib.            0.021858536415 Eh   ::
         :::::::::::::::::::::::::::::::::::::::::::::::::::::

           -------------------------------------------------
          | TOTAL ENERGY               -5.772678984995 Eh   |
          | TOTAL ENTHALPY             -5.750395600372 Eh   |
          | TOTAL FREE ENERGY          -5.750820448580 Eh   |
          | GRADIENT NORM               0.000315727324 Eh/Î± |
          | HOMO-LUMO GAP              12.072366548163 eV   |
           -------------------------------------------------

 * finished run on 2020/05/12 at 11:43:50.050
