   * xtb version 6.2.2 (9d81278992624c895f80dd42a50cac0aa55982e2) compiled by '@Darwin' on 04/03/2020
          program call               : xtb --input H2C1N2_2_S_2.input H2C1N2_2_S_2.xyz --ohess --molden --namespace H2C1N2_2_S_2 output.out
          number of atoms            :                     5
          number of electrons        :                    16
          charge                     :                     0
          spin                       :                   1.0

   ID    Z sym.   atoms
    1    7 N      1, 3
    2    6 C      2
    3    1 H      4, 5

          :  Hamiltonian                  GFN2-xTB          :
 * total energy  :    -8.6710430 Eh     change       -0.8427747E-09 Eh
 * total energy  :    -8.6970054 Eh     change       -0.2596241E-01 Eh
 * total energy  :    -8.7147642 Eh     change       -0.1775878E-01 Eh
 * total energy  :    -8.7166614 Eh     change       -0.1897154E-02 Eh
 * total energy  :    -8.7194158 Eh     change       -0.2754396E-02 Eh
 * total energy  :    -8.7207977 Eh     change       -0.1381904E-02 Eh
 * total energy  :    -8.7234071 Eh     change       -0.2609406E-02 Eh
 * total energy  :    -8.7253348 Eh     change       -0.1927712E-02 Eh
 * total energy  :    -8.7258720 Eh     change       -0.5371647E-03 Eh
 * total energy  :    -8.7268335 Eh     change       -0.9615467E-03 Eh
 * total energy  :    -8.7270553 Eh     change       -0.2218466E-03 Eh
 * total energy  :    -8.7271607 Eh     change       -0.1053174E-03 Eh
 * total energy  :    -8.7272015 Eh     change       -0.4083653E-04 Eh
 * total energy  :    -8.7272125 Eh     change       -0.1097177E-04 Eh
 * total energy  :    -8.7272159 Eh     change       -0.3414392E-05 Eh
   *** GEOMETRY OPTIMIZATION CONVERGED AFTER 15 ITERATIONS ***

 final structure:
================
5
 xtb: 6.2.2 (9d81278992624c895f80dd42a50cac0aa55982e2)
N        -0.38001662428706   -0.05081795410799    0.00732314848575
C        -1.42548020098798   -0.82164105185103    0.23834640342889
N         0.86478843345605   -0.39343493721840    0.16675656378882
H        -0.57907920590849    0.91402739682939   -0.33990712258920
H         1.51978759772748    0.35186654634802   -0.07251799311427

          :  Hamiltonian                  GFN2-xTB          :
         :: gradient norm              0.000741291120 Eh/a0 ::
         :: HOMO-LUMO gap              1.811964636184 eV    ::
         :: SCC energy                -8.804953750521 Eh    ::
         :: -> dispersion             -0.001490771763 Eh    ::
         :: repulsion energy           0.077737854280 Eh    ::

    * Orbital Energies and Occupations

         #    Occupation            Energy/Eh            Energy/eV
      -------------------------------------------------------------
         1        2.0000           -0.7124544             -19.3869
         2        2.0000           -0.6638121             -18.0632
         3        2.0000           -0.6204093             -16.8822
         4        2.0000           -0.5650036             -15.3745
         5        2.0000           -0.5632859             -15.3278
         6        2.0000           -0.4501693             -12.2497
         7        2.0000           -0.4220466             -11.4845
         8        1.0000           -0.3910230             -10.6403
         9        1.0000           -0.3198162              -8.7026 (HOMO)
        10                         -0.2532277              -6.8907 (LUMO)
        11                         -0.0046279              -0.1259
        12                          0.0577692               1.5720
        13                          0.2527635               6.8780
        14                          0.3725468              10.1375
      -------------------------------------------------------------
                  HL-Gap            0.0665885 Eh            1.8120 eV

     #   Z        covCN         q      C6AA      Î±(0)
     1   7 N      2.748     0.152    18.680     6.419
     2   6 C      0.927    -0.209    42.533    10.924
     3   7 N      1.856    -0.238    27.072     7.712
     4   1 H      0.858     0.151     1.398     1.852
     5   1 H      0.860     0.144     1.441     1.880

Wiberg/Mayer (AO) data.
largest (>0.10) Wiberg bond orders for each atom
          total WBO             WBO to atom ...

molecular dipole:
                 x           y           z       tot (Debye)
 q only:        0.314       0.842      -0.283
   full:        0.659       1.560      -0.523       4.505

 projected vibrational frequencies (cm-1)
eigval :       -0.00    -0.00     0.00     0.00     0.00     0.00
eigval :      366.77   481.38   791.05  1175.22  1185.53  1334.97
eigval :     1366.07  2822.65  3284.87

   temp. (K)  partition function   enthalpy   heat capacity  entropy
                                   cal/mol     cal/K/mol   cal/K/mol   J/K/mol
  10.00  VIB   1.00                    0.000      0.000     -0.001
         ROT   45.2                   29.809      2.981     10.557
         INT   45.2                   29.809      2.981     10.556
         TR   0.162E+25               49.681      4.968     20.259
         TOT                          79.4904     7.9490    30.8152   128.9307

       T/K    H(0)-H(T)+PV         H(T)/Eh          T*S/Eh         G(T)/Eh
   ------------------------------------------------------------------------
    298.15    0.449379E-02    0.336737E-01    0.284812E-01    0.519256E-02
    120.00    0.154807E-02    0.307280E-01    0.970314E-02    0.210249E-01
    100.00    0.127754E-02    0.304575E-01    0.783953E-02    0.226179E-01
     80.00    0.101608E-02    0.301960E-01    0.603844E-02    0.241576E-01
     60.00    0.760331E-03    0.299403E-01    0.430824E-02    0.256320E-01
     40.00    0.506707E-03    0.296866E-01    0.266656E-02    0.270201E-01
     20.00    0.253352E-03    0.294333E-01    0.115771E-02    0.282756E-01
     10.00    0.126676E-03    0.293066E-01    0.491071E-03    0.288155E-01 (used)
   ------------------------------------------------------------------------

         :::::::::::::::::::::::::::::::::::::::::::::::::::::
         ::                  THERMODYNAMIC                  ::
         :::::::::::::::::::::::::::::::::::::::::::::::::::::
         :: total free energy          -8.698400349116 Eh   ::
         ::.................................................::
         :: total energy               -8.727215887063 Eh   ::
         :: zero point energy           0.029179933080 Eh   ::
         :: G(RRHO) w/o ZPVE           -0.000364395133 Eh   ::
         :: G(RRHO) contrib.            0.028815537948 Eh   ::
         :::::::::::::::::::::::::::::::::::::::::::::::::::::

           -------------------------------------------------
          | TOTAL ENERGY               -8.727215887063 Eh   |
          | TOTAL ENTHALPY             -8.697909277967 Eh   |
          | TOTAL FREE ENERGY          -8.698400349116 Eh   |
          | GRADIENT NORM               0.000741333371 Eh/Î± |
          | HOMO-LUMO GAP               1.811966370360 eV   |
           -------------------------------------------------

 * finished run on 2020/05/12 at 11:45:20.878
