   * xtb version 6.2.2 (9d81278992624c895f80dd42a50cac0aa55982e2) compiled by '@Darwin' on 04/03/2020
          program call               : xtb --input H1N1_0_S_0.input H1N1_0_S_0.xyz --ohess --molden --namespace H1N1_0_S_0 output.out
          number of atoms            :                     2
          number of electrons        :                     6
          charge                     :                     0
          spin                       :                   0.0

   ID    Z sym.   atoms
    1    7 N      1
    2    1 H      2

          :  Hamiltonian                  GFN2-xTB          :
 * total energy  :    -3.2041012 Eh     change        0.3698153E-10 Eh
 * total energy  :    -3.2043581 Eh     change       -0.2569552E-03 Eh
 * total energy  :    -3.2043814 Eh     change       -0.2323015E-04 Eh
 * total energy  :    -3.2043815 Eh     change       -0.1144777E-06 Eh
   *** GEOMETRY OPTIMIZATION CONVERGED AFTER 4 ITERATIONS ***

 final structure:
================
2
 xtb: 6.2.2 (9d81278992624c895f80dd42a50cac0aa55982e2)
N         0.51195789217843    0.00000000000000    0.00000000000000
H        -0.51195789217843   -0.00000000000000    0.00000000000000

          :  Hamiltonian                  GFN2-xTB          :
         :: gradient norm              0.000263021955 Eh/a0 ::
         :: HOMO-LUMO gap              0.000001231906 eV    ::
         :: SCC energy                -3.220991987706 Eh    ::
         :: -> dispersion             -0.000079979322 Eh    ::
         :: repulsion energy           0.016610520550 Eh    ::

    * Orbital Energies and Occupations

         #    Occupation            Energy/Eh            Energy/eV
      -------------------------------------------------------------
Molecule has the following symmetry elements: (Cinf) (sigma)
It seems to be the Cinfv point group
         1        2.0000           -0.6129705             -16.6798
         2        2.0000           -0.4732503             -12.8778
         3        1.0000           -0.4477937             -12.1851 (HOMO)
         4        1.0000           -0.4477937             -12.1851 (LUMO)
         5                          0.0852464               2.3197
      -------------------------------------------------------------
                  HL-Gap            0.0000000 Eh            0.0000 eV

     #   Z        covCN         q      C6AA      α(0)
     1   7 N      0.859    -0.182    25.223     7.292
     2   1 H      0.859     0.182     1.204     1.719

Wiberg/Mayer (AO) data.
largest (>0.10) Wiberg bond orders for each atom
          total WBO             WBO to atom ...

molecular dipole:
                 x           y           z       tot (Debye)
 q only:       -0.352       0.000       0.000
   full:       -0.672       0.000       0.000       1.708

   temp. (K)  partition function   enthalpy   heat capacity  entropy
                                   cal/mol     cal/K/mol   cal/K/mol   J/K/mol
  10.00  VIB   1.00                    0.000      0.000     -0.000
         ROT  0.406                   19.873      1.987      0.198
         INT  0.406                   19.873      1.987      0.198
         TR   0.346E+24               49.681      4.968     17.192
         TOT                          69.5541     6.9554    17.3899    72.7595

       T/K    H(0)-H(T)+PV         H(T)/Eh          T*S/Eh         G(T)/Eh
   ------------------------------------------------------------------------
    298.15    0.330474E-02    0.107784E-01    0.194782E-01   -0.869988E-02
    120.00    0.133010E-02    0.880371E-02    0.662953E-02    0.217418E-02
    100.00    0.110842E-02    0.858203E-02    0.532259E-02    0.325944E-02
     80.00    0.886732E-03    0.836035E-02    0.406028E-02    0.430007E-02
     60.00    0.665049E-03    0.813866E-02    0.285395E-02    0.528471E-02
     40.00    0.443366E-03    0.791698E-02    0.172293E-02    0.619405E-02
     20.00    0.221683E-03    0.769530E-02    0.707858E-03    0.698744E-02
     10.00    0.110842E-03    0.758446E-02    0.277126E-03    0.730733E-02 (used)
   ------------------------------------------------------------------------

         :::::::::::::::::::::::::::::::::::::::::::::::::::::
         ::                  THERMODYNAMIC                  ::
         :::::::::::::::::::::::::::::::::::::::::::::::::::::
         :: total free energy          -3.197074136761 Eh   ::
         ::.................................................::
         :: total energy               -3.204381467164 Eh   ::
         :: zero point energy           0.007473615252 Eh   ::
         :: G(RRHO) w/o ZPVE           -0.000166284850 Eh   ::
         :: G(RRHO) contrib.            0.007307330403 Eh   ::
         :::::::::::::::::::::::::::::::::::::::::::::::::::::

           -------------------------------------------------
          | TOTAL ENERGY               -3.204381467164 Eh   |
          | TOTAL ENTHALPY             -3.196797010398 Eh   |
          | TOTAL FREE ENERGY          -3.197074136761 Eh   |
          | GRADIENT NORM               0.000262972598 Eh/α |
          | HOMO-LUMO GAP               0.000000047323 eV   |
           -------------------------------------------------

 * finished run on 2020/05/12 at 11:44:29.124
