   * xtb version 6.2.2 (9d81278992624c895f80dd42a50cac0aa55982e2) compiled by '@Darwin' on 04/03/2020
          program call               : xtb --input C3_1_S_2.input C3_1_S_2.xyz --ohess --molden --namespace C3_1_S_2 output.out
          number of atoms            :                     3
          number of electrons        :                    12
          charge                     :                     0
          spin                       :                   1.0

   ID    Z sym.   atoms
    1    6 C      1-3

          :  Hamiltonian                  GFN2-xTB          :
 * total energy  :    -5.9875976 Eh     change       -0.3419487E-12 Eh
 * total energy  :    -6.0108196 Eh     change       -0.2322198E-01 Eh
 * total energy  :    -6.0125856 Eh     change       -0.1766008E-02 Eh
 * total energy  :    -6.0131563 Eh     change       -0.5706748E-03 Eh
 * total energy  :    -6.0131622 Eh     change       -0.5907657E-05 Eh
 * total energy  :    -6.0131623 Eh     change       -0.9570975E-07 Eh
   *** GEOMETRY OPTIMIZATION CONVERGED AFTER 6 ITERATIONS ***

 final structure:
================
3
 xtb: 6.2.2 (9d81278992624c895f80dd42a50cac0aa55982e2)
C         0.79340389191704   -0.13833107871662    0.03266848043388
C        -0.27713832143310    0.75668034143101   -0.01167837061501
C        -0.51626557048394   -0.61834926271439   -0.02099110981886

          :  Hamiltonian                  GFN2-xTB          :
         :: gradient norm              0.000457611250 Eh/a0 ::
         :: HOMO-LUMO gap              3.455222647208 eV    ::
         :: SCC energy                -6.110288271294 Eh    ::
         :: -> dispersion             -0.000947587609 Eh    ::
         :: repulsion energy           0.097125983131 Eh    ::

    * Orbital Energies and Occupations

         #    Occupation            Energy/Eh            Energy/eV
      -------------------------------------------------------------
         1        2.0000           -0.7129765             -19.4011
         2        2.0000           -0.5707610             -15.5312
         3        2.0000           -0.5706755             -15.5289
         4        2.0000           -0.5233281             -14.2405
         5        1.4900           -0.4246701             -11.5559
         6        1.4808           -0.4246349             -11.5549
         7        1.0292           -0.4213778             -11.4663 (HOMO)
         8                         -0.2944007              -8.0110 (LUMO)
         9                         -0.2943581              -8.0099
        10                         -0.0279094              -0.7595
        11                          0.3654943               9.9456
        12                          0.3661161               9.9625
      -------------------------------------------------------------
                  HL-Gap            0.1269771 Eh            3.4552 eV

     #   Z        covCN         q      C6AA      Î±(0)
     1   6 C      1.960    -0.000    31.084     9.004
     2   6 C      1.960     0.000    31.074     9.002
     3   6 C      1.960     0.000    31.065     9.001

Wiberg/Mayer (AO) data.
largest (>0.10) Wiberg bond orders for each atom
          total WBO             WBO to atom ...

molecular dipole:
                 x           y           z       tot (Debye)
 q only:       -0.001      -0.000      -0.000
   full:       -0.004      -0.002      -0.000       0.012

 projected vibrational frequencies (cm-1)
Molecule has the following symmetry elements: (C3) 3*(C2) (S3) 4*(sigma)
It seems to be the D3h point group
eigval :       -0.00    -0.00     0.00     0.00     0.00     0.00
eigval :    -1509.20 -1504.69  1696.81

   temp. (K)  partition function   enthalpy   heat capacity  entropy
                                   cal/mol     cal/K/mol   cal/K/mol   J/K/mol
  10.00  VIB   1.00                    0.000      0.000     -0.000
         ROT   4.43                   29.809      2.981      5.937
         INT   4.43                   29.809      2.981      5.937
         TR   0.129E+25               49.681      4.968     19.800
         TOT                          79.4904     7.9490    25.7375   107.6855

       T/K    H(0)-H(T)+PV         H(T)/Eh          T*S/Eh         G(T)/Eh
   ------------------------------------------------------------------------
    298.15    0.377899E-02    0.764461E-02    0.250496E-01   -0.174050E-01
    120.00    0.152011E-02    0.538573E-02    0.869801E-02   -0.331228E-02
    100.00    0.126676E-02    0.513238E-02    0.701746E-02   -0.188508E-02
     80.00    0.101341E-02    0.487903E-02    0.538790E-02   -0.508872E-03
     60.00    0.760056E-03    0.462568E-02    0.382234E-02    0.803338E-03
     40.00    0.506704E-03    0.437232E-02    0.234284E-02    0.202949E-02
     20.00    0.253352E-03    0.411897E-02    0.995861E-03    0.312311E-02
     10.00    0.126676E-03    0.399229E-02    0.410152E-03    0.358214E-02 (used)
   ------------------------------------------------------------------------

         :::::::::::::::::::::::::::::::::::::::::::::::::::::
         ::                  THERMODYNAMIC                  ::
         :::::::::::::::::::::::::::::::::::::::::::::::::::::
         :: total free energy          -6.009580144788 Eh   ::
         ::.................................................::
         :: total energy               -6.013162287290 Eh   ::
         :: zero point energy           0.003865618907 Eh   ::
         :: G(RRHO) w/o ZPVE           -0.000283476405 Eh   ::
         :: G(RRHO) contrib.            0.003582142502 Eh   ::
         :::::::::::::::::::::::::::::::::::::::::::::::::::::

           -------------------------------------------------
          | TOTAL ENERGY               -6.013162287290 Eh   |
          | TOTAL ENTHALPY             -6.009169992367 Eh   |
          | TOTAL FREE ENERGY          -6.009580144788 Eh   |
          | GRADIENT NORM               0.000457035516 Eh/Î± |
          | HOMO-LUMO GAP               3.455223446307 eV   |
           -------------------------------------------------

 * finished run on 2020/05/12 at 11:44:25.550
