   * xtb version 6.2.2 (9d81278992624c895f80dd42a50cac0aa55982e2) compiled by '@Darwin' on 04/03/2020
          program call               : xtb --input H1C3N1_22_S_0.input H1C3N1_22_S_0.xyz --ohess --molden --namespace H1C3N1_22_S_0 output.out
          number of atoms            :                     5
          number of electrons        :                    18
          charge                     :                     0
          spin                       :                   0.0

   ID    Z sym.   atoms
    1    7 N      1
    2    6 C      2-4
    3    1 H      5

          :  Hamiltonian                  GFN2-xTB          :
 * total energy  :    -9.4260095 Eh     change       -0.3802985E-09 Eh
 * total energy  :    -9.5378039 Eh     change       -0.1117943E+00 Eh
 * total energy  :    -9.4725401 Eh     change        0.6526379E-01 Eh
 * total energy  :    -9.6088564 Eh     change       -0.1363163E+00 Eh
 * total energy  :    -9.6229361 Eh     change       -0.1407972E-01 Eh
 * total energy  :    -9.6298364 Eh     change       -0.6900335E-02 Eh
 * total energy  :    -9.6368869 Eh     change       -0.7050440E-02 Eh
 * total energy  :    -9.6406914 Eh     change       -0.3804533E-02 Eh
 * total energy  :    -9.6416375 Eh     change       -0.9461517E-03 Eh
 * total energy  :    -9.6419596 Eh     change       -0.3220648E-03 Eh
 * total energy  :    -9.7254659 Eh     change       -0.5087920E-02 Eh
 * total energy  :    -9.7257941 Eh     change       -0.3281705E-03 Eh
 * total energy  :    -9.7264278 Eh     change       -0.6336563E-03 Eh
 * total energy  :    -9.7265634 Eh     change       -0.1356250E-03 Eh
 * total energy  :    -9.7265936 Eh     change       -0.3023566E-04 Eh
 * total energy  :    -9.7266094 Eh     change       -0.1574769E-04 Eh
 * total energy  :    -9.7266187 Eh     change       -0.9346078E-05 Eh
 * total energy  :    -9.7266286 Eh     change       -0.9907851E-05 Eh
 * total energy  :    -9.7266305 Eh     change       -0.1823553E-05 Eh
   *** GEOMETRY OPTIMIZATION CONVERGED AFTER 34 ITERATIONS ***

 final structure:
================
5
 xtb: 6.2.2 (9d81278992624c895f80dd42a50cac0aa55982e2)
N         2.42593048248845    0.09691416990472    0.07950583892216
C         1.27940464754692    0.05062557287037    0.04180939470702
C        -1.28640201849404   -0.05155259155733   -0.04199842798553
C        -0.08408538688009   -0.00395499941556   -0.00320095910380
H        -2.33484772466128   -0.09203215180226   -0.07611684653972

          :  Hamiltonian                  GFN2-xTB          :
         :: gradient norm              0.000280433473 Eh/a0 ::
         :: HOMO-LUMO gap              4.526368993105 eV    ::
         :: SCC energy                -9.997242234378 Eh    ::
         :: -> dispersion             -0.001981205453 Eh    ::
         :: repulsion energy           0.270612305811 Eh    ::

    * Orbital Energies and Occupations

         #    Occupation            Energy/Eh            Energy/eV
      -------------------------------------------------------------
         1        2.0000           -0.6583611             -17.9149
         2        2.0000           -0.6532212             -17.7751
         3        2.0000           -0.6040538             -16.4371
         4        2.0000           -0.5355401             -14.5728
         5        2.0000           -0.5145240             -14.0009
         6        2.0000           -0.5145240             -14.0009
         7        2.0000           -0.4547547             -12.3745
         8        2.0000           -0.4547547             -12.3745
         9        2.0000           -0.4398756             -11.9696 (HOMO)
        10                         -0.2735342              -7.4432 (LUMO)
        11                         -0.2735342              -7.4432
        12                         -0.1084323              -2.9506
        13                         -0.1084320              -2.9506
        14                          0.0375921               1.0229
        15                          0.2930148               7.9733
        16                          1.0604847              28.8573
        17                          1.5404168              41.9169
Molecule has the following symmetry elements: (Cinf) (sigma)
It seems to be the Cinfv point group
      -------------------------------------------------------------
                  HL-Gap            0.1663414 Eh            4.5264 eV

     #   Z        covCN         q      C6AA      Î±(0)
     1   7 N      0.911    -0.205    25.457     7.297
     2   6 C      1.892     0.142    27.651     8.493
     3   6 C      1.910    -0.050    32.447     9.199
     4   6 C      1.962     0.008    30.869     8.972
     5   1 H      0.928     0.105     1.743     2.064

Wiberg/Mayer (AO) data.
largest (>0.10) Wiberg bond orders for each atom
          total WBO             WBO to atom ...

molecular dipole:
                 x           y           z       tot (Debye)
 q only:       -0.938      -0.037      -0.031
   full:       -1.453      -0.058      -0.048       3.699

   temp. (K)  partition function   enthalpy   heat capacity  entropy
                                   cal/mol     cal/K/mol   cal/K/mol   J/K/mol
  10.00  VIB   1.00                    0.000      0.000     -0.010
         ROT   45.2                   19.873      1.987      9.560
         INT   45.2                   19.873      1.987      9.550
         TR   0.217E+25               49.681      4.968     20.838
         TOT                          69.5541     6.9554    30.3875   127.1413

       T/K    H(0)-H(T)+PV         H(T)/Eh          T*S/Eh         G(T)/Eh
   ------------------------------------------------------------------------
    298.15    0.522114E-02    0.315878E-01    0.287789E-01    0.280892E-02
    120.00    0.153133E-02    0.278980E-01    0.939573E-02    0.185022E-01
    100.00    0.122378E-02    0.275904E-01    0.754984E-02    0.200406E-01
     80.00    0.939920E-03    0.273066E-01    0.578695E-02    0.215196E-01
     60.00    0.680672E-03    0.270473E-01    0.411695E-02    0.229304E-01
     40.00    0.444793E-03    0.268114E-01    0.255379E-02    0.242576E-01
     20.00    0.221684E-03    0.265883E-01    0.112230E-02    0.254660E-01
     10.00    0.110842E-03    0.264775E-01    0.484256E-03    0.259932E-01 (used)
   ------------------------------------------------------------------------

         :::::::::::::::::::::::::::::::::::::::::::::::::::::
         ::                  THERMODYNAMIC                  ::
         :::::::::::::::::::::::::::::::::::::::::::::::::::::
         :: total free energy          -9.700637221258 Eh   ::
         ::.................................................::
         :: total energy               -9.726630452109 Eh   ::
         :: zero point energy           0.026366644980 Eh   ::
         :: G(RRHO) w/o ZPVE           -0.000373414129 Eh   ::
         :: G(RRHO) contrib.            0.025993230851 Eh   ::
         :::::::::::::::::::::::::::::::::::::::::::::::::::::

           -------------------------------------------------
          | TOTAL ENERGY               -9.726630452109 Eh   |
          | TOTAL ENTHALPY             -9.700152965615 Eh   |
          | TOTAL FREE ENERGY          -9.700637221258 Eh   |
          | GRADIENT NORM               0.000280373322 Eh/Î± |
          | HOMO-LUMO GAP               4.526379039567 eV   |
           -------------------------------------------------

 * finished run on 2020/05/12 at 11:44:59.102
