   * xtb version 6.2.2 (9d81278992624c895f80dd42a50cac0aa55982e2) compiled by '@Darwin' on 04/03/2020
          program call               : xtb --input C5_16_S_0.input C5_16_S_0.xyz --ohess --molden --namespace C5_16_S_0 output.out
          number of atoms            :                     5
          number of electrons        :                    20
          charge                     :                     0
          spin                       :                   0.0

   ID    Z sym.   atoms
    1    6 C      1-5

          :  Hamiltonian                  GFN2-xTB          :
 * total energy  :   -10.1685887 Eh     change       -0.1248832E-09 Eh
 * total energy  :   -10.2163608 Eh     change       -0.4777206E-01 Eh
 * total energy  :   -10.2337876 Eh     change       -0.1742684E-01 Eh
 * total energy  :   -10.2387939 Eh     change       -0.5006280E-02 Eh
 * total energy  :   -10.2469358 Eh     change       -0.8141926E-02 Eh
 * total energy  :   -10.2474603 Eh     change       -0.5245091E-03 Eh
 * total energy  :   -10.2475067 Eh     change       -0.4641998E-04 Eh
 * total energy  :   -10.2475113 Eh     change       -0.4519500E-05 Eh
   *** GEOMETRY OPTIMIZATION CONVERGED AFTER 8 ITERATIONS ***

 final structure:
================
5
 xtb: 6.2.2 (9d81278992624c895f80dd42a50cac0aa55982e2)
C        -0.04769690039327   -0.94184340228990    0.00347091295041
C        -0.51964202306125    0.02979865051309    0.96473108188796
C         0.04746498673648    0.94185565347665   -0.00345526304887
C        -0.57457622350095    0.02559592493300   -0.93318083004035
C         1.09444916021898   -0.05540682663283   -0.03156490174917

          :  Hamiltonian                  GFN2-xTB          :
         :: gradient norm              0.000251940499 Eh/a0 ::
         :: HOMO-LUMO gap              2.778990161452 eV    ::
         :: SCC energy               -10.391970882488 Eh    ::
         :: -> dispersion             -0.002394707285 Eh    ::
         :: repulsion energy           0.144459604580 Eh    ::

    * Orbital Energies and Occupations

         #    Occupation            Energy/Eh            Energy/eV
      -------------------------------------------------------------
         1        2.0000           -0.7769226             -21.1411
         2        2.0000           -0.6564098             -17.8618
         3        2.0000           -0.6564051             -17.8617
         4        2.0000           -0.6480046             -17.6331
         5        2.0000           -0.5376602             -14.6305
         6        2.0000           -0.5376185             -14.6293
         7        2.0000           -0.4991317             -13.5821
         8        2.0000           -0.4781458             -13.0110
         9        2.0000           -0.4751074             -12.9283
        10        2.0000           -0.4750787             -12.9276 (HOMO)
        11                         -0.3729526             -10.1486 (LUMO)
        12                         -0.3267240              -8.8906
        13                         -0.3266638              -8.8890
        14                         -0.2969365              -8.0801
        15                          0.0152517               0.4150
        16                          0.0155002               0.4218
        17                          0.1092923               2.9740
        18                          0.1094720               2.9789
        19                          0.1406920               3.8284
        20                          0.5510603              14.9951
      -------------------------------------------------------------
                  HL-Gap            0.1021261 Eh            2.7790 eV

     #   Z        covCN         q      C6AA      Î±(0)
     1   6 C      3.651     0.080    19.541     6.349
     2   6 C      3.340    -0.054    26.644     8.162
     3   6 C      3.651     0.080    19.541     6.349
     4   6 C      3.340    -0.054    26.644     8.162
     5   6 C      3.340    -0.054    26.647     8.163

Wiberg/Mayer (AO) data.
largest (>0.10) Wiberg bond orders for each atom
          total WBO             WBO to atom ...

molecular dipole:
                 x           y           z       tot (Debye)
 q only:       -0.000       0.000       0.000
   full:       -0.000       0.000       0.000       0.001

 projected vibrational frequencies (cm-1)
eigval :       -0.00    -0.00    -0.00    -0.00     0.00     0.00
eigval :      465.46   465.77   664.01   882.78   883.40  1124.82
eigval :     1136.85  1137.33  1398.82

   temp. (K)  partition function   enthalpy   heat capacity  entropy
                                   cal/mol     cal/K/mol   cal/K/mol   J/K/mol
  10.00  VIB   1.00                    0.000      0.000     -0.001
         ROT   22.1                   29.809      2.981      9.136
         INT   22.1                   29.809      2.981      9.135
         TR   0.277E+25               49.681      4.968     21.322
         TOT                          79.4904     7.9490    30.4571   127.4324

       T/K    H(0)-H(T)+PV         H(T)/Eh          T*S/Eh         G(T)/Eh
   ------------------------------------------------------------------------
    298.15    0.459473E-02    0.231828E-01    0.283980E-01   -0.521520E-02
    120.00    0.153742E-02    0.201255E-01    0.962103E-02    0.105045E-01
    100.00    0.127223E-02    0.198603E-01    0.777598E-02    0.120844E-01
     80.00    0.101441E-02    0.196025E-01    0.599080E-02    0.136117E-01
     60.00    0.760117E-03    0.193482E-01    0.427373E-02    0.150745E-01
     40.00    0.506704E-03    0.190948E-01    0.264371E-02    0.164511E-01
     20.00    0.253352E-03    0.188414E-01    0.114629E-02    0.176952E-01
     10.00    0.126676E-03    0.187148E-01    0.485364E-03    0.182294E-01 (used)
   ------------------------------------------------------------------------

         :::::::::::::::::::::::::::::::::::::::::::::::::::::
         ::                  THERMODYNAMIC                  ::
         :::::::::::::::::::::::::::::::::::::::::::::::::::::
         :: total free energy         -10.229281851384 Eh   ::
         ::.................................................::
         :: total energy              -10.247511260730 Eh   ::
         :: zero point energy           0.018588097748 Eh   ::
         :: G(RRHO) w/o ZPVE           -0.000358688403 Eh   ::
         :: G(RRHO) contrib.            0.018229409345 Eh   ::
         :::::::::::::::::::::::::::::::::::::::::::::::::::::

           -------------------------------------------------
          | TOTAL ENERGY              -10.247511260730 Eh   |
          | TOTAL ENTHALPY            -10.228796486966 Eh   |
          | TOTAL FREE ENERGY         -10.229281851384 Eh   |
          | GRADIENT NORM               0.000252430354 Eh/Î± |
          | HOMO-LUMO GAP               2.778992434442 eV   |
           -------------------------------------------------

 * finished run on 2020/05/12 at 11:44:38.535
