 Gaussian 16, Revision B.01,

 --------------------------------------------------------
 #P M062X/cc-pvtz nosymm opt(noeigentest) optcyc=120 freq
 --------------------------------------------------------

 -----
 Title
 -----
 Symbolic Z-matrix:
 Charge =  0 Multiplicity = 1

 SCF Done:  E(RM062X) =  -114.495202754     A.U. after   13 cycles
 SCF Done:  E(RM062X) =  -114.496491577     A.U. after   10 cycles
 SCF Done:  E(RM062X) =  -114.496616492     A.U. after    8 cycles
 SCF Done:  E(RM062X) =  -114.496617489     A.U. after    6 cycles
 Optimization completed.
    -- Stationary point found.
 Normal termination of Gaussian 16 at Fri Sep 25 11:33:38 2020.

 -------------------------------------------------------------------
 #P Geom=AllCheck Guess=TCheck SCRF=Check GenChk RM062X/CC-pVTZ Freq
 -------------------------------------------------------------------

 Structure from the checkpoint file:  "input.chk"
 -----
 Title
 -----
 Charge =  0 Multiplicity = 1

 SCF Done:  E(RM062X) =  -114.496617489     A.U. after    1 cycles

  Exact polarizability:  18.797  -0.000   9.878   1.921  -0.000  16.531
 Approx polarizability:  22.545  -0.000  11.658   3.901  -0.000  18.040

                      1                      2                      3
                      A                      A                      A
 Frequencies --   1217.9979              1279.1683              1546.0395
 Red. masses --      1.3671                 1.3439                 1.0914
 Frc consts  --      1.1950                 1.2956                 1.5370
 IR Inten    --      3.7029                15.1669                 9.6149

                      4                      5                      6
                      A                      A                      A
 Frequencies --   1876.8012              2942.9404              3014.1185
 Red. masses --      8.0226                 1.0459                 1.1208
 Frc consts  --     16.6495                 5.3370                 5.9992
 IR Inten    --    113.4462                56.5351               106.0706

 - Thermochemistry -
 -------------------
 Temperature   298.150 Kelvin.  Pressure   1.00000 Atm.
 Atom     1 has atomic number  6 and mass  12.00000

 Molecular mass:    30.01056 amu.
 Principal axes and moments of inertia in atomic units:
                           1         2         3
     Eigenvalues --     6.32794  45.73475  52.06269
           X            0.86603  -0.49999   0.00000
           Y           -0.00000  -0.00000   1.00000
           Z            0.49999   0.86603   0.00000
 This molecule is an asymmetric top.
 Rotational symmetry number  1.
 Rotational temperatures (Kelvin)     13.68755     1.89383     1.66365
 Rotational constants (GHZ):         285.20223    39.46105    34.66477
 Zero-point vibrational energy      71040.6 (Joules/Mol)
                                   16.97912 (Kcal/Mol)
 Vibrational temperatures:   1752.43  1840.44  2224.41  2700.30  4234.23
          (Kelvin)           4336.64

 Zero-point correction=                           0.027058 (Hartree/Particle)
 Thermal correction to Energy=                    0.029923
 Thermal correction to Enthalpy=                  0.030868
 Thermal correction to Gibbs Free Energy=         0.005414
 Sum of electronic and zero-point Energies=           -114.469560
 Sum of electronic and thermal Energies=              -114.466694
 Sum of electronic and thermal Enthalpies=            -114.465750
 Sum of electronic and thermal Free Energies=         -114.491204

                     E (Thermal)             CV                S
                      KCal/Mol        Cal/Mol-Kelvin    Cal/Mol-Kelvin
 Total                   18.777              6.397             53.572
 Electronic               0.000              0.000              0.000
 Translational            0.889              2.981             36.130
 Rotational               0.889              2.981             17.362
 Vibrational             17.000              0.435              0.080

 Optimization completed.
    -- Stationary point found.
 Normal termination of Gaussian 16 at Fri Sep 25 11:33:53 2020.
 Gaussian 16:  ES64L-G16RevB.01 20-Dec-2017

 -----------------------------------------------
 #P CCSD(T)/aug-cc-pvtz geom=allcheck guess=read
 -----------------------------------------------

 Structure from the checkpoint file:  "input.chk"
 -----
 Title
 -----
 Charge =  0 Multiplicity = 1

                         Standard orientation:
 ---------------------------------------------------------------------
 Center     Atomic      Atomic             Coordinates (Angstroms)
 Number     Number       Type             X           Y           Z
 ---------------------------------------------------------------------
      1          6           0        0.524893   -0.000000   -0.000000
      2          1           0        1.107194    0.937622    0.000000
      3          1           0        1.107219   -0.937608    0.000000
      4          8           0       -0.670472   -0.000002    0.000000
 ---------------------------------------------------------------------

 SCF Done:  E(RHF) =  -113.914621274     A.U. after   11 cycles
 E2 =    -0.4013331528D+00 EUMP2 =    -0.11431595442709D+03
 CCSD(T)
 CCSD(T)= -0.11434254284D+03

 The electronic state is 1-A.
 Alpha  occ. eigenvalues --  -20.57829 -11.34065  -1.41383  -0.86883  -0.69687
 Alpha  occ. eigenvalues --   -0.65537  -0.54191  -0.44205
 Alpha virt. eigenvalues --    0.02645   0.04184   0.06302   0.07641   0.13134
 Alpha virt. eigenvalues --    0.13319   0.13331   0.17419   0.19861   0.21138
 Alpha virt. eigenvalues --    0.21729   0.25446   0.25634   0.28139   0.32117

 Mulliken charges:
               1
     1  C   -0.435915
     2  H    0.462017
     3  H    0.462021
     4  O   -0.488123
 Sum of Mulliken charges =  -0.00000

 Dipole moment (field-independent basis, Debye):
    X=              2.7956    Y=             -0.0000    Z=              0.0000  Tot=              2.7956
 Quadrupole moment (field-independent basis, Debye-Ang):
   XX=            -12.1237   YY=            -11.4166   ZZ=            -11.7334
   XY=             -0.0000   XZ=              0.0000   YZ=              0.0000

 114.3216688\MP4SDQ=-114.3267789\CCSD=-114.32533\CCSD(T)=-114.3425428\R
 Normal termination of Gaussian 16 at Fri Sep 25 11:34:44 2020.
