   * xtb version 6.2.2 (9d81278992624c895f80dd42a50cac0aa55982e2) compiled by '@Darwin' on 04/03/2020
          program call               : xtb --input C1O2_2_S_0.input C1O2_2_S_0.xyz --ohess --molden --namespace C1O2_2_S_0 output.out
          number of atoms            :                     3
          number of electrons        :                    16
          charge                     :                     0
          spin                       :                   0.0

   ID    Z sym.   atoms
    1    6 C      1
    2    8 O      2, 3

          :  Hamiltonian                  GFN2-xTB          :
 * total energy  :   -10.0441627 Eh     change        0.6590284E-12 Eh
 * total energy  :   -10.0634452 Eh     change       -0.1928256E-01 Eh
 * total energy  :   -10.0675709 Eh     change       -0.4125671E-02 Eh
 * total energy  :   -10.0677209 Eh     change       -0.1499638E-03 Eh
 * total energy  :   -10.0677445 Eh     change       -0.2365896E-04 Eh
 * total energy  :   -10.0677454 Eh     change       -0.8839283E-06 Eh
   *** GEOMETRY OPTIMIZATION CONVERGED AFTER 6 ITERATIONS ***

 final structure:
================
3
 xtb: 6.2.2 (9d81278992624c895f80dd42a50cac0aa55982e2)
C        -0.23874750430827    0.66959575957461   -0.01423083139669
O        -0.56660971711057   -0.58020797796304   -0.03144347026361
O         0.80535722141884   -0.08938778161157    0.04567430166030

          :  Hamiltonian                  GFN2-xTB          :
         :: gradient norm              0.000481556750 Eh/a0 ::
         :: HOMO-LUMO gap              3.960880066075 eV    ::
         :: SCC energy               -10.106177823200 Eh    ::
         :: -> dispersion             -0.000668383852 Eh    ::
         :: repulsion energy           0.038432418221 Eh    ::

    * Orbital Energies and Occupations

         #    Occupation            Energy/Eh            Energy/eV
      -------------------------------------------------------------
         1        2.0000           -0.8482707             -23.0826
         2        2.0000           -0.7694523             -20.9379
         3        2.0000           -0.7086319             -19.2829
         4        2.0000           -0.6763557             -18.4046
         5        2.0000           -0.6578457             -17.9009
         6        2.0000           -0.6156744             -16.7534
         7        2.0000           -0.5187555             -14.1161
         8        2.0000           -0.4914919             -13.3742 (HOMO)
         9                         -0.3459322              -9.4133 (LUMO)
        10                         -0.2890842              -7.8664
        11                         -0.0084222              -0.2292
        12                          0.4066880              11.0665
      -------------------------------------------------------------
                  HL-Gap            0.1455597 Eh            3.9609 eV

     #   Z        covCN         q      C6AA      Î±(0)
     1   6 C      1.710     0.127    28.245     8.604
     2   8 O      1.756    -0.064    15.318     5.285
     3   8 O      1.756    -0.064    15.318     5.285

Wiberg/Mayer (AO) data.
largest (>0.10) Wiberg bond orders for each atom
          total WBO             WBO to atom ...

molecular dipole:
                 x           y           z       tot (Debye)
 q only:       -0.086       0.242      -0.005
   full:        0.042      -0.117       0.002       0.315

 projected vibrational frequencies (cm-1)
eigval :       -0.00    -0.00    -0.00    -0.00     0.00     0.00
eigval :      902.76   986.96  1634.17

   temp. (K)  partition function   enthalpy   heat capacity  entropy
                                   cal/mol     cal/K/mol   cal/K/mol   J/K/mol
  10.00  VIB   1.00                    0.000      0.000     -0.000
         ROT   15.8                   29.809      2.981      8.472
         INT   15.8                   29.809      2.981      8.472
         TR   0.174E+25               49.681      4.968     20.396
         TOT                          79.4904     7.9490    28.8676   120.7819

       T/K    H(0)-H(T)+PV         H(T)/Eh          T*S/Eh         G(T)/Eh
   ------------------------------------------------------------------------
    298.15    0.387183E-02    0.118998E-01    0.266501E-01   -0.147503E-01
    120.00    0.152023E-02    0.954823E-02    0.929673E-02    0.251508E-03
    100.00    0.126677E-02    0.929478E-02    0.751629E-02    0.177849E-02
     80.00    0.101341E-02    0.904142E-02    0.578696E-02    0.325446E-02
     60.00    0.760056E-03    0.878806E-02    0.412163E-02    0.466643E-02
     40.00    0.506704E-03    0.853471E-02    0.254236E-02    0.599235E-02
     20.00    0.253352E-03    0.828136E-02    0.109563E-02    0.718573E-02
     10.00    0.126676E-03    0.815468E-02    0.460034E-03    0.769465E-02 (used)
   ------------------------------------------------------------------------

         :::::::::::::::::::::::::::::::::::::::::::::::::::::
         ::                  THERMODYNAMIC                  ::
         :::::::::::::::::::::::::::::::::::::::::::::::::::::
         :: total free energy         -10.060050755258 Eh   ::
         ::.................................................::
         :: total energy              -10.067745404366 Eh   ::
         :: zero point energy           0.008028007170 Eh   ::
         :: G(RRHO) w/o ZPVE           -0.000333358062 Eh   ::
         :: G(RRHO) contrib.            0.007694649108 Eh   ::
         :::::::::::::::::::::::::::::::::::::::::::::::::::::

           -------------------------------------------------
          | TOTAL ENERGY              -10.067745404366 Eh   |
          | TOTAL ENTHALPY            -10.059590721180 Eh   |
          | TOTAL FREE ENERGY         -10.060050755258 Eh   |
          | GRADIENT NORM               0.000481557127 Eh/Î± |
          | HOMO-LUMO GAP               3.960879957506 eV   |
           -------------------------------------------------

 * finished run on 2020/05/12 at 11:44:49.393
