   * xtb version 6.2.2 (9d81278992624c895f80dd42a50cac0aa55982e2) compiled by '@Darwin' on 04/03/2020
          program call               : xtb --input C4_2_S_2.input C4_2_S_2.xyz --ohess --molden --namespace C4_2_S_2 output.out
          number of atoms            :                     4
          number of electrons        :                    16
          charge                     :                     0
          spin                       :                   1.0

   ID    Z sym.   atoms
    1    6 C      1-4

          :  Hamiltonian                  GFN2-xTB          :
 * total energy  :    -8.0170032 Eh     change       -0.1450992E-08 Eh
 * total energy  :    -8.0913139 Eh     change       -0.7431068E-01 Eh
 * total energy  :    -8.0930303 Eh     change       -0.1716458E-02 Eh
 * total energy  :    -8.1200923 Eh     change       -0.2706199E-01 Eh
 * total energy  :    -8.1224794 Eh     change       -0.2387044E-02 Eh
 * total energy  :    -8.1237811 Eh     change       -0.1301772E-02 Eh
 * total energy  :    -8.1242005 Eh     change       -0.4193457E-03 Eh
 * total energy  :    -8.1245718 Eh     change       -0.3713617E-03 Eh
 * total energy  :    -8.1245837 Eh     change       -0.1189787E-04 Eh
 * total energy  :    -8.1245846 Eh     change       -0.8312755E-06 Eh
   *** GEOMETRY OPTIMIZATION CONVERGED AFTER 10 ITERATIONS ***

 final structure:
================
4
 xtb: 6.2.2 (9d81278992624c895f80dd42a50cac0aa55982e2)
C         1.61057760619018   -0.02846571998958   -0.06195879658428
C         0.36056988417971   -0.00777215538677    0.13731834513495
C        -0.97387034338531    0.66761422005622   -0.03169360918020
C        -0.99727714698458   -0.63137734467986   -0.04366593937047

          :  Hamiltonian                  GFN2-xTB          :
         :: gradient norm              0.000273721859 Eh/a0 ::
         :: HOMO-LUMO gap              2.551553672748 eV    ::
         :: SCC energy                -8.290257719485 Eh    ::
         :: -> dispersion             -0.001890052473 Eh    ::
         :: repulsion energy           0.165673149459 Eh    ::

    * Orbital Energies and Occupations

         #    Occupation            Energy/Eh            Energy/eV
      -------------------------------------------------------------
         1        2.0000           -0.7225626             -19.6619
         2        2.0000           -0.6725215             -18.3002
         3        2.0000           -0.5756733             -15.6649
         4        2.0000           -0.5669072             -15.4263
         5        2.0000           -0.5397662             -14.6878
         6        2.0000           -0.4674929             -12.7211
         7        2.0000           -0.4558676             -12.4048
         8        1.0000           -0.4338614             -11.8060
         9        1.0000           -0.4228553             -11.5065 (HOMO)
        10                         -0.3290883              -8.9549 (LUMO)
        11                         -0.2786769              -7.5832
        12                         -0.2294989              -6.2450
        13                         -0.0358275              -0.9749
        14                          0.0599365               1.6310
        15                          0.5526683              15.0389
        16                          0.8007937              21.7907
      -------------------------------------------------------------
                  HL-Gap            0.0937670 Eh            2.5515 eV

     #   Z        covCN         q      C6AA      Î±(0)
Molecule has the following symmetry elements: (sigma)
It seems to be the Cs point group
     1   6 C      0.981    -0.116    39.622    10.573
     2   6 C      2.934     0.121    25.348     8.257
     3   6 C      1.958    -0.003    31.144     9.012
     4   6 C      1.958    -0.003    31.144     9.012

Wiberg/Mayer (AO) data.
largest (>0.10) Wiberg bond orders for each atom
          total WBO             WBO to atom ...

molecular dipole:
                 x           y           z       tot (Debye)
 q only:       -0.260       0.004       0.045
   full:       -0.455       0.006       0.198       1.260

 projected vibrational frequencies (cm-1)
eigval :       -0.00     0.00     0.00     0.00     0.00     0.00
eigval :      230.98   267.11   309.69   826.67  1485.65  1818.46

   temp. (K)  partition function   enthalpy   heat capacity  entropy
                                   cal/mol     cal/K/mol   cal/K/mol   J/K/mol
  10.00  VIB   1.00                    0.000      0.000     -0.006
         ROT   92.6                   29.809      2.981     11.981
         INT   92.6                   29.809      2.981     11.975
         TR   0.198E+25               49.681      4.968     20.657
         TOT                          79.4904     7.9490    32.6318   136.5315

       T/K    H(0)-H(T)+PV         H(T)/Eh          T*S/Eh         G(T)/Eh
   ------------------------------------------------------------------------
    298.15    0.523928E-02    0.164902E-01    0.307268E-01   -0.142366E-01
    120.00    0.167757E-02    0.129285E-01    0.102253E-01    0.270315E-02
    100.00    0.134935E-02    0.126002E-01    0.822225E-02    0.437799E-02
     80.00    0.104565E-02    0.122965E-01    0.630717E-02    0.598936E-02
     60.00    0.767065E-03    0.120179E-01    0.449042E-02    0.752753E-02
     40.00    0.507066E-03    0.117579E-01    0.278307E-02    0.897487E-02
     20.00    0.253352E-03    0.115042E-01    0.121569E-02    0.102885E-01
     10.00    0.126676E-03    0.113776E-01    0.520021E-03    0.108575E-01 (used)
   ------------------------------------------------------------------------

         :::::::::::::::::::::::::::::::::::::::::::::::::::::
         ::                  THERMODYNAMIC                  ::
         :::::::::::::::::::::::::::::::::::::::::::::::::::::
         :: total free energy          -8.113727024353 Eh   ::
         ::.................................................::
         :: total energy               -8.124584562269 Eh   ::
         :: zero point energy           0.011250882928 Eh   ::
         :: G(RRHO) w/o ZPVE           -0.000393345012 Eh   ::
         :: G(RRHO) contrib.            0.010857537916 Eh   ::
         :::::::::::::::::::::::::::::::::::::::::::::::::::::

           -------------------------------------------------
          | TOTAL ENERGY               -8.124584562269 Eh   |
          | TOTAL ENTHALPY             -8.113207003326 Eh   |
          | TOTAL FREE ENERGY          -8.113727024353 Eh   |
          | GRADIENT NORM               0.000273359946 Eh/Î± |
          | HOMO-LUMO GAP               2.551530263150 eV   |
           -------------------------------------------------

 * finished run on 2020/05/12 at 14:38:40.159
