   * xtb version 6.2.2 (9d81278992624c895f80dd42a50cac0aa55982e2) compiled by '@Darwin' on 04/03/2020
          program call               : xtb --input H3N1_0_S_2.input H3N1_0_S_2.xyz --ohess --molden --namespace H3N1_0_S_2 output.out
          number of atoms            :                     4
          number of electrons        :                     8
          charge                     :                     0
          spin                       :                   1.0

   ID    Z sym.   atoms
    1    7 N      1
    2    1 H      2-4

          :  Hamiltonian                  GFN2-xTB          :
 * total energy  :    -3.9770972 Eh     change        0.1449929E-09 Eh
 * total energy  :    -4.1116070 Eh     change       -0.1345098E+00 Eh
 * total energy  :    -4.1396676 Eh     change       -0.2806060E-01 Eh
 * total energy  :    -4.1417789 Eh     change       -0.2111214E-02 Eh
 * total energy  :    -4.1418853 Eh     change       -0.1064138E-03 Eh
 * total energy  :    -4.1420704 Eh     change       -0.1851440E-03 Eh
 * total energy  :    -4.1420717 Eh     change       -0.1277812E-05 Eh
   *** GEOMETRY OPTIMIZATION CONVERGED AFTER 7 ITERATIONS ***

 final structure:
================
4
 xtb: 6.2.2 (9d81278992624c895f80dd42a50cac0aa55982e2)
N        -0.00000062354069   -0.00000665901178    0.00013428927245
H         1.25456479507169   -0.22896859810951   -0.00065398661338
H        -0.82541424897435   -0.97135321270113   -0.03821886613232
H        -0.42914892255665    1.20032846982241    0.03873856347326

          :  Hamiltonian                  GFN2-xTB          :
         :: gradient norm              0.000229777814 Eh/a0 ::
         :: HOMO-LUMO gap              4.066391488269 eV    ::
         :: SCC energy                -4.147432699414 Eh    ::
         :: -> dispersion             -0.000473521023 Eh    ::
         :: repulsion energy           0.005360998652 Eh    ::

    * Orbital Energies and Occupations
Molecule has the following symmetry elements: (C3) 3*(C2) (S3) 4*(sigma)
It seems to be the D3h point group

         #    Occupation            Energy/Eh            Energy/eV
      -------------------------------------------------------------
         1        2.0000           -0.5879902             -16.0000
         2        2.0000           -0.5007939             -13.6273
         3        2.0000           -0.5007890             -13.6272
         4        1.0000           -0.4501246             -12.2485
         5        1.0000           -0.2413843              -6.5684 (HOMO)
         6                         -0.0919471              -2.5020 (LUMO)
         7                         -0.0919298              -2.5015
      -------------------------------------------------------------
                  HL-Gap            0.1494371 Eh            4.0664 eV

     #   Z        covCN         q      C6AA      Î±(0)
     1   7 N      2.006    -0.148    24.927     7.405
     2   1 H      0.669     0.049     2.558     2.559
     3   1 H      0.669     0.049     2.558     2.559
     4   1 H      0.669     0.049     2.559     2.559

Wiberg/Mayer (AO) data.
largest (>0.10) Wiberg bond orders for each atom
          total WBO             WBO to atom ...

molecular dipole:
                 x           y           z       tot (Debye)
 q only:       -0.000      -0.000      -0.000
   full:       -0.000      -0.000      -0.000       0.000

 projected vibrational frequencies (cm-1)
eigval :       -0.00    -0.00    -0.00     0.00     0.00     0.00
eigval :    -2228.49 -2228.28   823.18   823.28  1123.34  2184.45

   temp. (K)  partition function   enthalpy   heat capacity  entropy
                                   cal/mol     cal/K/mol   cal/K/mol   J/K/mol
  10.00  VIB   1.00                    0.000      0.000     -0.000
         ROT  0.426                   29.809      2.981      1.287
         INT  0.426                   29.809      2.981      1.287
         TR   0.418E+24               49.681      4.968     17.567
         TOT                          79.4904     7.9490    18.8544    78.8867

       T/K    H(0)-H(T)+PV         H(T)/Eh          T*S/Eh         G(T)/Eh
   ------------------------------------------------------------------------
    298.15    0.394377E-02    0.152304E-01    0.219839E-01   -0.675354E-02
    120.00    0.152051E-02    0.128071E-01    0.738220E-02    0.542491E-02
    100.00    0.126681E-02    0.125534E-01    0.592064E-02    0.663278E-02
     80.00    0.101341E-02    0.123000E-01    0.451040E-02    0.778962E-02
     60.00    0.760056E-03    0.120467E-01    0.316421E-02    0.888245E-02
     40.00    0.506704E-03    0.117933E-01    0.190408E-02    0.988922E-02
     20.00    0.253352E-03    0.115400E-01    0.776485E-03    0.107635E-01
     10.00    0.126676E-03    0.114133E-01    0.300464E-03    0.111128E-01 (used)
   ------------------------------------------------------------------------

         :::::::::::::::::::::::::::::::::::::::::::::::::::::
         ::                  THERMODYNAMIC                  ::
         :::::::::::::::::::::::::::::::::::::::::::::::::::::
         :: total free energy          -4.130958877186 Eh   ::
         ::.................................................::
         :: total energy               -4.142071693699 Eh   ::
         :: zero point energy           0.011286604088 Eh   ::
         :: G(RRHO) w/o ZPVE           -0.000173787575 Eh   ::
         :: G(RRHO) contrib.            0.011112816513 Eh   ::
         :::::::::::::::::::::::::::::::::::::::::::::::::::::

           -------------------------------------------------
          | TOTAL ENERGY               -4.142071693699 Eh   |
          | TOTAL ENTHALPY             -4.130658413595 Eh   |
          | TOTAL FREE ENERGY          -4.130958877186 Eh   |
          | GRADIENT NORM               0.000229778635 Eh/Î± |
          | HOMO-LUMO GAP               4.066391541443 eV   |
           -------------------------------------------------

 * finished run on 2020/05/12 at 11:44:27.705
