 Gaussian 16, Revision B.01,

 --------------------------------------------------------
 #P M062X/cc-pvtz nosymm opt(noeigentest) optcyc=120 freq
 --------------------------------------------------------

 -----
 Title
 -----
 Symbolic Z-matrix:
 Charge =  0 Multiplicity = 1

 SCF Done:  E(RM062X) =  -76.4234963717     A.U. after   10 cycles
 SCF Done:  E(RM062X) =  -76.4252389478     A.U. after   10 cycles
 SCF Done:  E(RM062X) =  -76.4252736073     A.U. after    7 cycles
 Optimization completed.
    -- Stationary point found.
 Normal termination of Gaussian 16 at Fri Sep 25 11:34:12 2020.

 -------------------------------------------------------------------
 #P Geom=AllCheck Guess=TCheck SCRF=Check GenChk RM062X/CC-pVTZ Freq
 -------------------------------------------------------------------

 Structure from the checkpoint file:  "input.chk"
 -----
 Title
 -----
 Charge =  0 Multiplicity = 1

 SCF Done:  E(RM062X) =  -76.4252736073     A.U. after    1 cycles

  Exact polarizability:   7.594  -0.000   5.409  -0.627  -0.000   7.919
 Approx polarizability:   8.130   0.000   5.341  -0.671   0.000   8.478

                      1                      2                      3
                      A                      A                      A
 Frequencies --   1627.1099              3874.5906              3976.8291
 Red. masses --      1.0827                 1.0452                 1.0821
 Frc consts  --      1.6888                 9.2446                10.0833
 IR Inten    --     75.4742                 9.3531                62.3482

 - Thermochemistry -
 -------------------
 Temperature   298.150 Kelvin.  Pressure   1.00000 Atm.
 Atom     1 has atomic number  8 and mass  15.99491

 Molecular mass:    18.01056 amu.
 Principal axes and moments of inertia in atomic units:
                           1         2         3
     Eigenvalues --     2.18949   4.15288   6.34237
           X           -0.61215   0.79074  -0.00000
           Y            0.00000   0.00000   1.00000
           Z            0.79074   0.61215  -0.00000
 This molecule is an asymmetric top.
 Rotational symmetry number  1.
 Rotational temperatures (Kelvin)     39.55903    20.85633    13.65640
 Rotational constants (GHZ):         824.27634   434.57535   284.55312
 Zero-point vibrational energy      56694.2 (Joules/Mol)
                                   13.55024 (Kcal/Mol)
 Vibrational temperatures:   2341.05  5574.67  5721.77
          (Kelvin)

 Zero-point correction=                           0.021594 (Hartree/Particle)
 Thermal correction to Energy=                    0.024429
 Thermal correction to Enthalpy=                  0.025373
 Thermal correction to Gibbs Free Energy=         0.003305
 Sum of electronic and zero-point Energies=            -76.403680
 Sum of electronic and thermal Energies=               -76.400844
 Sum of electronic and thermal Enthalpies=             -76.399900
 Sum of electronic and thermal Free Energies=          -76.421969

                     E (Thermal)             CV                S
                      KCal/Mol        Cal/Mol-Kelvin    Cal/Mol-Kelvin
 Total                   15.330              6.009             46.447
 Electronic               0.000              0.000              0.000
 Translational            0.889              2.981             34.608
 Rotational               0.889              2.981             11.832
 Vibrational             13.552              0.048              0.007

 Optimization completed.
    -- Stationary point found.
 Normal termination of Gaussian 16 at Fri Sep 25 11:34:18 2020.
 Gaussian 16:  ES64L-G16RevB.01 20-Dec-2017

 -----------------------------------------------
 #P CCSD(T)/aug-cc-pvtz geom=allcheck guess=read
 -----------------------------------------------

 Structure from the checkpoint file:  "input.chk"
 -----
 Title
 -----
 Charge =  0 Multiplicity = 1

                         Standard orientation:
 ---------------------------------------------------------------------
 Center     Atomic      Atomic             Coordinates (Angstroms)
 Number     Number       Type             X           Y           Z
 ---------------------------------------------------------------------
      1          8           0        0.000000    0.117049   -0.000000
      2          1           0        0.759571   -0.468193    0.000000
      3          1           0       -0.759571   -0.468198   -0.000000
 ---------------------------------------------------------------------

 SCF Done:  E(RHF) =  -76.0605124822     A.U. after   10 cycles
 E2 =    -0.2684608889D+00 EUMP2 =    -0.76328973371081D+02
 CCSD(T)
 CCSD(T)= -0.76342306496D+02

 The electronic state is 1-A'.
 Alpha  occ. eigenvalues --  -20.56737  -1.35257  -0.71744  -0.58413  -0.51015
 Alpha virt. eigenvalues --    0.02944   0.04766   0.13599   0.15855   0.17510
 Alpha virt. eigenvalues --    0.18291   0.22756   0.24494   0.26516   0.30081
 Alpha virt. eigenvalues --    0.31064   0.36576   0.43785   0.46651   0.59976

 Mulliken charges:
               1
     1  O   -0.440830
     2  H    0.220413
     3  H    0.220416
 Sum of Mulliken charges =  -0.00000

 Dipole moment (field-independent basis, Debye):
    X=              0.0000    Y=             -1.9796    Z=             -0.0000  Tot=              1.9796
 Quadrupole moment (field-independent basis, Debye-Ang):
   XX=             -4.2300   YY=             -6.2533   ZZ=             -7.5622
   XY=              0.0000   XZ=              0.0000   YZ=             -0.0000

 \MP4SDQ=-76.3341467\CCSD=-76.3336671\CCSD(T)=-76.3423065\RMSD=1.292e-0
 Normal termination of Gaussian 16 at Fri Sep 25 11:35:14 2020.
