   * xtb version 6.2.2 (9d81278992624c895f80dd42a50cac0aa55982e2) compiled by '@Darwin' on 04/03/2020
          program call               : xtb --input H1C4_5_S_1.input H1C4_5_S_1.xyz --ohess --molden --namespace H1C4_5_S_1 output.out
          number of atoms            :                     5
          number of electrons        :                    17
          charge                     :                     0
          spin                       :                   0.5

   ID    Z sym.   atoms
    1    6 C      1-4
    2    1 H      5

          :  Hamiltonian                  GFN2-xTB          :
 * total energy  :    -8.5632222 Eh     change       -0.6074430E-10 Eh
 * total energy  :    -8.6024366 Eh     change       -0.3921440E-01 Eh
 * total energy  :    -8.4062727 Eh     change        0.1961640E+00 Eh
 * total energy  :    -8.6465227 Eh     change       -0.2402501E+00 Eh
 * total energy  :    -8.6632519 Eh     change       -0.1672913E-01 Eh
 * total energy  :    -8.6636413 Eh     change       -0.3894727E-03 Eh
 * total energy  :    -8.6650879 Eh     change       -0.1446571E-02 Eh
 * total energy  :    -8.6651885 Eh     change       -0.1006146E-03 Eh
 * total energy  :    -8.6653293 Eh     change       -0.1407788E-03 Eh
 * total energy  :    -8.6507304 Eh     change        0.1459891E-01 Eh
 * total energy  :    -8.7095503 Eh     change       -0.8449531E-02 Eh
 * total energy  :    -8.7110817 Eh     change       -0.1531408E-02 Eh
 * total energy  :    -8.7149224 Eh     change       -0.3840745E-02 Eh
 * total energy  :    -8.7162020 Eh     change       -0.1279518E-02 Eh
 * total energy  :    -8.7164053 Eh     change       -0.2033526E-03 Eh
 * total energy  :    -8.7164748 Eh     change       -0.6945209E-04 Eh
 * total energy  :    -8.7164905 Eh     change       -0.1577279E-04 Eh
 * total energy  :    -8.7164953 Eh     change       -0.4771490E-05 Eh
 * total energy  :    -8.7164962 Eh     change       -0.8781668E-06 Eh
   *** GEOMETRY OPTIMIZATION CONVERGED AFTER 28 ITERATIONS ***

 final structure:
================
5
 xtb: 6.2.2 (9d81278992624c895f80dd42a50cac0aa55982e2)
C         0.62684649536665   -0.80113635273100    0.30656760578853
C         0.31896722311241    0.44123039930317   -0.26705709761237
C        -0.88602897208098   -0.22158070355950   -0.54316389610521
C        -0.72894907787869   -0.86610555639512    0.70682016933802
H         0.66916333148061    1.44759221338244   -0.20316678140898

          :  Hamiltonian                  GFN2-xTB          :
         :: gradient norm              0.000258647076 Eh/a0 ::
         :: HOMO-LUMO gap              2.288912506286 eV    ::
         :: SCC energy                -8.857963385166 Eh    ::
         :: -> dispersion             -0.002016962741 Eh    ::
         :: repulsion energy           0.141467181618 Eh    ::

    * Orbital Energies and Occupations

         #    Occupation            Energy/Eh            Energy/eV
      -------------------------------------------------------------
         1        2.0000           -0.7180950             -19.5404
         2        2.0000           -0.6232536             -16.9596
         3        2.0000           -0.6035180             -16.4226
         4        2.0000           -0.5628571             -15.3161
         5        2.0000           -0.5099372             -13.8761
         6        2.0000           -0.5073358             -13.8053
         7        2.0000           -0.4462817             -12.1439
         8        2.0000           -0.4204303             -11.4405
         9        1.0000           -0.3905740             -10.6281 (HOMO)
        10                         -0.3064581              -8.3392 (LUMO)
        11                         -0.2688553              -7.3159
        12                         -0.2459788              -6.6934
        13                          0.1030127               2.8031
        14                          0.1186717               3.2292
        15                          0.1799213               4.8959
        16                          0.2699673               7.3462
        17                          0.6430606              17.4986
      -------------------------------------------------------------
                  HL-Gap            0.0841159 Eh            2.2889 eV

     #   Z        covCN         q      C6AA      Î±(0)
     1   6 C      2.762    -0.039    28.949     8.811
     2   6 C      3.504     0.060    21.055     6.800
     3   6 C      2.762    -0.039    28.949     8.811
     4   6 C      2.577    -0.061    29.549     8.887
     5   1 H      0.927     0.079     1.990     2.206

Wiberg/Mayer (AO) data.
largest (>0.10) Wiberg bond orders for each atom
          total WBO             WBO to atom ...

molecular dipole:
                 x           y           z       tot (Debye)
 q only:        0.240       0.442      -0.125
   full:        0.483       0.761      -0.339       2.448

 projected vibrational frequencies (cm-1)
eigval :       -0.00    -0.00    -0.00     0.00     0.00     0.00
eigval :      523.34   624.87   744.42   750.31   914.95  1055.33
Molecule has the following symmetry elements: (sigma)
It seems to be the Cs point group
eigval :     1273.35  1462.34  3184.02

   temp. (K)  partition function   enthalpy   heat capacity  entropy
                                   cal/mol     cal/K/mol   cal/K/mol   J/K/mol
  10.00  VIB   1.00                    0.000      0.000     -0.000
         ROT   82.8                   29.809      2.981     11.756
         INT   82.8                   29.809      2.981     11.756
         TR   0.204E+25               49.681      4.968     20.719
         TOT                          79.4904     7.9490    32.4751   135.8757

       T/K    H(0)-H(T)+PV         H(T)/Eh          T*S/Eh         G(T)/Eh
   ------------------------------------------------------------------------
    298.15    0.442004E-02    0.284158E-01    0.290903E-01   -0.674454E-03
    120.00    0.152716E-02    0.255229E-01    0.999463E-02    0.155283E-01
    100.00    0.126855E-02    0.252643E-01    0.809325E-02    0.171711E-01
     80.00    0.101365E-02    0.250094E-01    0.624718E-02    0.187622E-01
     60.00    0.760066E-03    0.247558E-01    0.446660E-02    0.202892E-01
     40.00    0.506704E-03    0.245025E-01    0.277234E-02    0.217301E-01
     20.00    0.253352E-03    0.242491E-01    0.121061E-02    0.230385E-01
     10.00    0.126676E-03    0.241224E-01    0.517523E-03    0.236049E-01 (used)
   ------------------------------------------------------------------------

         :::::::::::::::::::::::::::::::::::::::::::::::::::::
         ::                  THERMODYNAMIC                  ::
         :::::::::::::::::::::::::::::::::::::::::::::::::::::
         :: total free energy          -8.692891259865 Eh   ::
         ::.................................................::
         :: total energy               -8.716496178829 Eh   ::
         :: zero point energy           0.023995766258 Eh   ::
         :: G(RRHO) w/o ZPVE           -0.000390847294 Eh   ::
         :: G(RRHO) contrib.            0.023604918964 Eh   ::
         :::::::::::::::::::::::::::::::::::::::::::::::::::::

           -------------------------------------------------
          | TOTAL ENERGY               -8.716496178829 Eh   |
          | TOTAL ENTHALPY             -8.692373736555 Eh   |
          | TOTAL FREE ENERGY          -8.692891259865 Eh   |
          | GRADIENT NORM               0.000258518657 Eh/Î± |
          | HOMO-LUMO GAP               2.288910265979 eV   |
           -------------------------------------------------

 * finished run on 2020/05/12 at 11:45:10.072
