   * xtb version 6.2.2 (9d81278992624c895f80dd42a50cac0aa55982e2) compiled by '@Darwin' on 04/03/2020
          program call               : xtb --input H1C3N1_27_S_2.input H1C3N1_27_S_2.xyz --ohess --molden --namespace H1C3N1_27_S_2 output.out
          number of atoms            :                     5
          number of electrons        :                    18
          charge                     :                     0
          spin                       :                   1.0

   ID    Z sym.   atoms
    1    6 C      1-3
    2    7 N      4
    3    1 H      5

          :  Hamiltonian                  GFN2-xTB          :
 * total energy  :    -9.4455454 Eh     change        0.9435652E-09 Eh
 * total energy  :    -9.4720304 Eh     change       -0.2648501E-01 Eh
 * total energy  :    -9.4871599 Eh     change       -0.1512949E-01 Eh
 * total energy  :    -9.4915223 Eh     change       -0.4362413E-02 Eh
 * total energy  :    -9.4921140 Eh     change       -0.5916509E-03 Eh
 * total energy  :    -9.4925133 Eh     change       -0.3993231E-03 Eh
 * total energy  :    -9.4925846 Eh     change       -0.7133974E-04 Eh
 * total energy  :    -9.4926097 Eh     change       -0.2509040E-04 Eh
 * total energy  :    -9.4926110 Eh     change       -0.1315879E-05 Eh
   *** GEOMETRY OPTIMIZATION CONVERGED AFTER 9 ITERATIONS ***

 final structure:
================
5
 xtb: 6.2.2 (9d81278992624c895f80dd42a50cac0aa55982e2)
C        -1.06364600441539   -0.46145782772665   -0.14605682753490
C        -0.00845538191729    0.51385465193952   -0.32950223483300
C         1.06411152788874   -0.44820572573909   -0.17998951520730
N         0.01299507732865   -1.03691877762784    0.40991255287633
H        -0.00500621888470    1.43272867915406    0.24563602469886

          :  Hamiltonian                  GFN2-xTB          :
         :: gradient norm              0.000215994677 Eh/a0 ::
         :: HOMO-LUMO gap              0.931784647286 eV    ::
         :: SCC energy                -9.608186718045 Eh    ::
         :: -> dispersion             -0.002040021533 Eh    ::
         :: repulsion energy           0.115575641912 Eh    ::

    * Orbital Energies and Occupations

         #    Occupation            Energy/Eh            Energy/eV
      -------------------------------------------------------------
         1        2.0000           -0.7380279             -20.0828
         2        2.0000           -0.6431253             -17.5003
         3        2.0000           -0.6277566             -17.0821
         4        2.0000           -0.5723456             -15.5743
         5        2.0000           -0.5353571             -14.5678
         6        2.0000           -0.5346827             -14.5495
         7        2.0000           -0.4667646             -12.7013
         8        2.0000           -0.4440088             -12.0821
         9        1.0000           -0.4078864             -11.0992
        10        1.0000           -0.3482004              -9.4750 (HOMO)
        11                         -0.3139580              -8.5432 (LUMO)
        12                         -0.2497496              -6.7960
        13                          0.0281491               0.7660
        14                          0.1002305               2.7274
        15                          0.1723196               4.6891
        16                          0.2854903               7.7686
        17                          0.4473302              12.1725
      -------------------------------------------------------------
                  HL-Gap            0.0342425 Eh            0.9318 eV

     #   Z        covCN         q      C6AA      Î±(0)
Molecule has the following symmetry elements: (sigma)
It seems to be the Cs point group
     1   6 C      2.133    -0.050    32.125     9.161
     2   6 C      3.697     0.058    19.764     6.359
     3   6 C      2.133    -0.050    32.125     9.161
     4   7 N      2.634    -0.036    21.957     6.959
     5   1 H      0.925     0.079     1.987     2.204

Wiberg/Mayer (AO) data.
largest (>0.10) Wiberg bond orders for each atom
          total WBO             WBO to atom ...

molecular dipole:
                 x           y           z       tot (Debye)
 q only:       -0.003       0.429       0.004
   full:       -0.002       0.572       0.109       1.480

 projected vibrational frequencies (cm-1)
eigval :       -0.00    -0.00     0.00     0.00     0.00     0.00
eigval :      550.91   748.74   771.50   906.62   984.39  1067.25
eigval :     1162.58  1415.12  3022.14

   temp. (K)  partition function   enthalpy   heat capacity  entropy
                                   cal/mol     cal/K/mol   cal/K/mol   J/K/mol
  10.00  VIB   1.00                    0.000      0.000     -0.000
         ROT   85.2                   29.809      2.981     11.814
         INT   85.2                   29.809      2.981     11.814
         TR   0.217E+25               49.681      4.968     20.838
         TOT                          79.4904     7.9490    32.6520   136.6158

       T/K    H(0)-H(T)+PV         H(T)/Eh          T*S/Eh         G(T)/Eh
   ------------------------------------------------------------------------
    298.15    0.429412E-02    0.285093E-01    0.289976E-01   -0.488252E-03
    120.00    0.152441E-02    0.257396E-01    0.100253E-01    0.157144E-01
    100.00    0.126780E-02    0.254830E-01    0.812057E-02    0.173625E-01
     80.00    0.101354E-02    0.252288E-01    0.626960E-02    0.189592E-01
     60.00    0.760061E-03    0.249753E-01    0.448350E-02    0.204918E-01
     40.00    0.506704E-03    0.247219E-01    0.278361E-02    0.219383E-01
     20.00    0.253352E-03    0.244686E-01    0.121624E-02    0.232523E-01
     10.00    0.126676E-03    0.243419E-01    0.520342E-03    0.238216E-01 (used)
   ------------------------------------------------------------------------

         :::::::::::::::::::::::::::::::::::::::::::::::::::::
         ::                  THERMODYNAMIC                  ::
         :::::::::::::::::::::::::::::::::::::::::::::::::::::
         :: total free energy          -9.468789489450 Eh   ::
         ::.................................................::
         :: total energy               -9.492611047069 Eh   ::
         :: zero point energy           0.024215223663 Eh   ::
         :: G(RRHO) w/o ZPVE           -0.000393666043 Eh   ::
         :: G(RRHO) contrib.            0.023821557620 Eh   ::
         :::::::::::::::::::::::::::::::::::::::::::::::::::::

           -------------------------------------------------
          | TOTAL ENERGY               -9.492611047069 Eh   |
          | TOTAL ENTHALPY             -9.468269147391 Eh   |
          | TOTAL FREE ENERGY          -9.468789489450 Eh   |
          | GRADIENT NORM               0.000215931487 Eh/Î± |
          | HOMO-LUMO GAP               0.931785323184 eV   |
           -------------------------------------------------

 * finished run on 2020/05/12 at 11:45:01.088
