   * xtb version 6.2.2 (9d81278992624c895f80dd42a50cac0aa55982e2) compiled by '@Darwin' on 04/03/2020
          program call               : xtb --input H2C1O2_2_S_2.input H2C1O2_2_S_2.xyz --ohess --molden --namespace H2C1O2_2_S_2 output.out
          number of atoms            :                     5
          number of electrons        :                    18
          charge                     :                     0
          spin                       :                   1.0

   ID    Z sym.   atoms
    1    6 C      1
    2    8 O      2, 3
    3    1 H      4, 5

          :  Hamiltonian                  GFN2-xTB          :
 * total energy  :   -11.0832849 Eh     change        0.3922906E-10 Eh
 * total energy  :   -11.0886401 Eh     change       -0.5355225E-02 Eh
 * total energy  :   -11.0896091 Eh     change       -0.9690031E-03 Eh
 * total energy  :   -11.0896238 Eh     change       -0.1463333E-04 Eh
 * total energy  :   -11.0896245 Eh     change       -0.6935162E-06 Eh
   *** GEOMETRY OPTIMIZATION CONVERGED AFTER 5 ITERATIONS ***

 final structure:
================
5
 xtb: 6.2.2 (9d81278992624c895f80dd42a50cac0aa55982e2)
C         0.06929956809631    0.05842442604004   -0.28245012865306
O         1.03421350473697   -0.37143513356297    0.58413550755341
O        -1.21537965083637    0.21870496148246    0.15426289165730
H         1.87292940578057   -0.42948185153865    0.11923857474886
H        -1.76106382777749    0.52378659757911   -0.57518684530651

          :  Hamiltonian                  GFN2-xTB          :
         :: gradient norm              0.000494030157 Eh/a0 ::
         :: HOMO-LUMO gap              7.573678153944 eV    ::
         :: SCC energy               -11.143600184336 Eh    ::
         :: -> dispersion             -0.001112497451 Eh    ::
         :: repulsion energy           0.053975788624 Eh    ::

    * Orbital Energies and Occupations

         #    Occupation            Energy/Eh            Energy/eV
      -------------------------------------------------------------
         1        2.0000           -0.7100468             -19.3214
         2        2.0000           -0.7080057             -19.2658
         3        2.0000           -0.6350631             -17.2809
         4        2.0000           -0.5669948             -15.4287
         5        2.0000           -0.5658933             -15.3987
         6        2.0000           -0.5402855             -14.7019
         7        2.0000           -0.5301697             -14.4267
         8        2.0000           -0.4749008             -12.9227
         9        1.0000           -0.3433978              -9.3443
        10        1.0000           -0.2445231              -6.6538 (HOMO)
        11                          0.0338044               0.9199 (LUMO)
        12                          0.1471507               4.0042
        13                          0.2411050               6.5608
        14                          0.2412973               6.5660
      -------------------------------------------------------------
                  HL-Gap            0.2783275 Eh            7.5737 eV

     #   Z        covCN         q      C6AA      Î±(0)
     1   6 C      1.706     0.065    29.759     8.833
     2   8 O      1.658    -0.349    19.886     6.020
     3   8 O      1.658    -0.349    19.886     6.020
     4   1 H      0.805     0.317     0.673     1.288
     5   1 H      0.805     0.317     0.673     1.288

Wiberg/Mayer (AO) data.
largest (>0.10) Wiberg bond orders for each atom
          total WBO             WBO to atom ...

molecular dipole:
                 x           y           z       tot (Debye)
 q only:        0.195       0.164      -0.794
   full:        0.243       0.205      -0.989       2.641

 projected vibrational frequencies (cm-1)
eigval :       -0.00    -0.00    -0.00    -0.00    -0.00     0.00
eigval :     -434.81  -310.92   412.94  1021.51  1043.45  1264.78
eigval :     1360.71  3566.61  3570.73

   temp. (K)  partition function   enthalpy   heat capacity  entropy
                                   cal/mol     cal/K/mol   cal/K/mol   J/K/mol
  10.00  VIB   1.00                    0.000      0.000     -0.000
         ROT   26.9                   29.809      2.981      9.524
         INT   26.9                   29.809      2.981      9.524
         TR   0.186E+25               49.681      4.968     20.529
         TOT                          79.4904     7.9490    30.0530   125.7417

       T/K    H(0)-H(T)+PV         H(T)/Eh          T*S/Eh         G(T)/Eh
   ------------------------------------------------------------------------
    298.15    0.416050E-02    0.320469E-01    0.276364E-01    0.441050E-02
    120.00    0.153356E-02    0.294200E-01    0.953954E-02    0.198805E-01
    100.00    0.127172E-02    0.291582E-01    0.771106E-02    0.214471E-01
     80.00    0.101453E-02    0.289010E-01    0.593941E-02    0.229615E-01
     60.00    0.760150E-03    0.286466E-01    0.423511E-02    0.244115E-01
     40.00    0.506705E-03    0.283931E-01    0.261795E-02    0.257752E-01
     20.00    0.253352E-03    0.281398E-01    0.113341E-02    0.270064E-01
     10.00    0.126676E-03    0.280131E-01    0.478925E-03    0.275342E-01 (used)
   ------------------------------------------------------------------------

         :::::::::::::::::::::::::::::::::::::::::::::::::::::
         ::                  THERMODYNAMIC                  ::
         :::::::::::::::::::::::::::::::::::::::::::::::::::::
         :: total free energy         -11.062090271251 Eh   ::
         ::.................................................::
         :: total energy              -11.089624452729 Eh   ::
         :: zero point energy           0.027886430286 Eh   ::
         :: G(RRHO) w/o ZPVE           -0.000352248808 Eh   ::
         :: G(RRHO) contrib.            0.027534181478 Eh   ::
         :::::::::::::::::::::::::::::::::::::::::::::::::::::

           -------------------------------------------------
          | TOTAL ENERGY              -11.089624452729 Eh   |
          | TOTAL ENTHALPY            -11.061611346427 Eh   |
          | TOTAL FREE ENERGY         -11.062090271251 Eh   |
          | GRADIENT NORM               0.000494004502 Eh/Î± |
          | HOMO-LUMO GAP               7.573677177946 eV   |
           -------------------------------------------------

 * finished run on 2020/05/12 at 11:43:52.652
