   * xtb version 6.2.2 (9d81278992624c895f80dd42a50cac0aa55982e2) compiled by '@Darwin' on 04/03/2020
          program call               : xtb --input C4N1_3_S_1.input C4N1_3_S_1.xyz --ohess --molden --namespace C4N1_3_S_1 output.out
          number of atoms            :                     5
          number of electrons        :                    21
          charge                     :                     0
          spin                       :                   0.5

   ID    Z sym.   atoms
    1    6 C      1, 3-5
    2    7 N      2

          :  Hamiltonian                  GFN2-xTB          :
 * total energy  :   -10.8327504 Eh     change       -0.3034017E-11 Eh
 * total energy  :   -10.9168413 Eh     change       -0.8409090E-01 Eh
 * total energy  :   -10.9602952 Eh     change       -0.4345392E-01 Eh
 * total energy  :   -11.0192382 Eh     change       -0.5894296E-01 Eh
 * total energy  :   -11.0431126 Eh     change       -0.2387441E-01 Eh
 * total energy  :   -11.0418342 Eh     change        0.1278435E-02 Eh
 * total energy  :   -11.0514336 Eh     change       -0.9599382E-02 Eh
 * total energy  :   -11.0581896 Eh     change       -0.6756059E-02 Eh
 * total energy  :   -11.0614053 Eh     change       -0.3215711E-02 Eh
 * total energy  :   -11.0632617 Eh     change       -0.1856343E-02 Eh
 * total energy  :   -11.0701306 Eh     change       -0.2385661E-03 Eh
 * total energy  :   -11.0703705 Eh     change       -0.2399086E-03 Eh
 * total energy  :   -11.0704293 Eh     change       -0.5874384E-04 Eh
 * total energy  :   -11.0704621 Eh     change       -0.3281606E-04 Eh
 * total energy  :   -11.0704944 Eh     change       -0.3225307E-04 Eh
 * total energy  :   -11.0705403 Eh     change       -0.4592228E-04 Eh
 * total energy  :   -11.0705800 Eh     change       -0.3976260E-04 Eh
 * total energy  :   -11.0706198 Eh     change       -0.3980712E-04 Eh
 * total energy  :   -11.0706213 Eh     change       -0.1439075E-05 Eh
   *** GEOMETRY OPTIMIZATION CONVERGED AFTER 26 ITERATIONS ***

 final structure:
================
5
 xtb: 6.2.2 (9d81278992624c895f80dd42a50cac0aa55982e2)
C        -1.42818612828698   -0.66975811768788   -0.07708822698769
N        -0.30164787903751    0.01721348146314    0.00272087881357
C         0.99179857041672    0.07832012274049    0.00762033704882
C        -1.45628489397632    0.75753067113733    0.09271863980805
C         2.19432033088409   -0.18330515765308   -0.02597162868276

          :  Hamiltonian                  GFN2-xTB          :
         :: gradient norm              0.000569162022 Eh/a0 ::
         :: HOMO-LUMO gap              1.945859298265 eV    ::
         :: SCC energy               -11.271557527815 Eh    ::
         :: -> dispersion             -0.002881665074 Eh    ::
         :: repulsion energy           0.200936303198 Eh    ::

    * Orbital Energies and Occupations

         #    Occupation            Energy/Eh            Energy/eV
      -------------------------------------------------------------
         1        2.0000           -0.7608524             -20.7038
         2        2.0000           -0.7063723             -19.2214
         3        2.0000           -0.6522818             -17.7495
         4        2.0000           -0.6445855             -17.5401
         5        2.0000           -0.6124001             -16.6643
         6        2.0000           -0.5450460             -14.8315
         7        2.0000           -0.4996184             -13.5953
         8        2.0000           -0.4723204             -12.8525
         9        2.0000           -0.4495130             -12.2319
        10        1.9692           -0.4383359             -11.9277
        11        1.0308           -0.4317803             -11.7493 (HOMO)
        12                         -0.3602713              -9.8035 (LUMO)
        13                         -0.3124802              -8.5030
        14                         -0.2329298              -6.3383
        15                         -0.1732094              -4.7133
        16                         -0.0570790              -1.5532
        17                          0.0118905               0.3236
        18                          0.3045163               8.2863
        19                          0.4571336              12.4392
        20                          1.1247269              30.6054
      -------------------------------------------------------------
                  HL-Gap            0.0715090 Eh            1.9459 eV

     #   Z        covCN         q      C6AA      Î±(0)
     1   6 C      1.892    -0.047    32.394     9.192
     2   7 N      2.731     0.205    17.860     6.277
     3   6 C      1.895     0.030    30.333     8.895
     4   6 C      1.891    -0.080    33.317     9.322
     5   6 C      0.982    -0.108    39.370    10.539

Wiberg/Mayer (AO) data.
largest (>0.10) Wiberg bond orders for each atom
          total WBO             WBO to atom ...

molecular dipole:
                 x           y           z       tot (Debye)
 q only:       -0.159      -0.006      -0.000
   full:        0.048      -0.015      -0.002       0.127

 projected vibrational frequencies (cm-1)
eigval :       -0.00    -0.00    -0.00     0.00     0.00     0.00
eigval :      188.93   204.88   460.19   493.76   609.53   909.67
eigval :     1097.29  1691.22  1800.35

   temp. (K)  partition function   enthalpy   heat capacity  entropy
                                   cal/mol     cal/K/mol   cal/K/mol   J/K/mol
  10.00  VIB   1.00                    0.000      0.000     -0.011
         ROT   212.                   29.809      2.981     13.630
         INT   212.                   29.809      2.981     13.619
         TR   0.290E+25               49.681      4.968     21.419
         TOT                          79.4904     7.9490    35.0385   146.6010

       T/K    H(0)-H(T)+PV         H(T)/Eh          T*S/Eh         G(T)/Eh
   ------------------------------------------------------------------------
    298.15    0.562797E-02    0.226136E-01    0.325154E-01   -0.990186E-02
    120.00    0.172383E-02    0.187094E-01    0.107619E-01    0.794750E-02
    100.00    0.138435E-02    0.183699E-01    0.865921E-02    0.971072E-02
     80.00    0.106813E-02    0.180537E-01    0.664556E-02    0.114082E-01
     60.00    0.776398E-03    0.177620E-01    0.473287E-02    0.130291E-01
     40.00    0.508257E-03    0.174938E-01    0.293825E-02    0.145556E-01
     20.00    0.253353E-03    0.172389E-01    0.129250E-02    0.159464E-01
     10.00    0.126676E-03    0.171123E-01    0.558374E-03    0.165539E-01 (used)
   ------------------------------------------------------------------------

         :::::::::::::::::::::::::::::::::::::::::::::::::::::
         ::                  THERMODYNAMIC                  ::
         :::::::::::::::::::::::::::::::::::::::::::::::::::::
         :: total free energy         -11.054067399987 Eh   ::
         ::.................................................::
         :: total energy              -11.070621285758 Eh   ::
         :: zero point energy           0.016985583445 Eh   ::
         :: G(RRHO) w/o ZPVE           -0.000431697674 Eh   ::
         :: G(RRHO) contrib.            0.016553885771 Eh   ::
         :::::::::::::::::::::::::::::::::::::::::::::::::::::

           -------------------------------------------------
          | TOTAL ENERGY              -11.070621285758 Eh   |
          | TOTAL ENTHALPY            -11.053509026297 Eh   |
          | TOTAL FREE ENERGY         -11.054067399987 Eh   |
          | GRADIENT NORM               0.000569553672 Eh/Î± |
          | HOMO-LUMO GAP               1.945858595448 eV   |
           -------------------------------------------------

 * finished run on 2020/05/12 at 11:43:58.310
