   * xtb version 6.2.2 (9d81278992624c895f80dd42a50cac0aa55982e2) compiled by '@Darwin' on 04/03/2020
          program call               : xtb --input C3N1_2_S_1.input C3N1_2_S_1.xyz --ohess --molden --namespace C3N1_2_S_1 output.out
          number of atoms            :                     4
          number of electrons        :                    17
          charge                     :                     0
          spin                       :                   0.5

   ID    Z sym.   atoms
    1    6 C      1-3
    2    7 N      4

          :  Hamiltonian                  GFN2-xTB          :
 * total energy  :    -8.8521699 Eh     change       -0.2793747E-09 Eh
 * total energy  :    -8.9976285 Eh     change       -0.1454586E+00 Eh
 * total energy  :    -8.9870734 Eh     change        0.1055507E-01 Eh
 * total energy  :    -9.0640763 Eh     change       -0.7700283E-01 Eh
 * total energy  :    -9.0699631 Eh     change       -0.5886818E-02 Eh
 * total energy  :    -9.0777374 Eh     change       -0.7774331E-02 Eh
 * total energy  :    -9.0707290 Eh     change        0.7008400E-02 Eh
 * total energy  :    -9.0818566 Eh     change       -0.1112758E-01 Eh
 * total energy  :    -9.0874315 Eh     change       -0.5574896E-02 Eh
 * total energy  :    -9.0905496 Eh     change       -0.3118115E-02 Eh
 * total energy  :    -9.0991636 Eh     change       -0.2351018E-03 Eh
 * total energy  :    -9.0992338 Eh     change       -0.7021720E-04 Eh
 * total energy  :    -9.0992976 Eh     change       -0.6378438E-04 Eh
 * total energy  :    -9.0993563 Eh     change       -0.5871724E-04 Eh
 * total energy  :    -9.0993741 Eh     change       -0.1781107E-04 Eh
 * total energy  :    -9.0993829 Eh     change       -0.8765720E-05 Eh
 * total energy  :    -9.0993918 Eh     change       -0.8957446E-05 Eh
 * total energy  :    -9.0994003 Eh     change       -0.8451806E-05 Eh
 * total energy  :    -9.0994027 Eh     change       -0.2385703E-05 Eh
   *** GEOMETRY OPTIMIZATION CONVERGED AFTER 25 ITERATIONS ***

 final structure:
================
4
 xtb: 6.2.2 (9d81278992624c895f80dd42a50cac0aa55982e2)
C         1.87246234524707    0.03265037910645   -0.03052246533999
C         0.66820551628454    0.01009166141990   -0.01785712350097
C        -0.69785282283608   -0.01055350777509    0.01307249730147
N        -1.84281603869554   -0.03218853275126    0.03530809153949

          :  Hamiltonian                  GFN2-xTB          :
         :: gradient norm              0.000477942543 Eh/a0 ::
         :: HOMO-LUMO gap              3.869141761536 eV    ::
         :: SCC energy                -9.348455946230 Eh    ::
         :: -> dispersion             -0.001733036294 Eh    ::
         :: repulsion energy           0.249053359475 Eh    ::

    * Orbital Energies and Occupations

         #    Occupation            Energy/Eh            Energy/eV
      -------------------------------------------------------------
         1        2.0000           -0.6839086             -18.6101
         2        2.0000           -0.6692736             -18.2119
         3        2.0000           -0.6179649             -16.8157
         4        2.0000           -0.5388907             -14.6640
         5        2.0000           -0.5388905             -14.6640
         6        2.0000           -0.4811211             -13.0920
         7        2.0000           -0.4697326             -12.7821
         8        2.0000           -0.4697297             -12.7820
         9        1.0000           -0.4342615             -11.8169 (HOMO)
        10                         -0.2920731              -7.9477 (LUMO)
        11                         -0.2920680              -7.9476
        12                         -0.1267624              -3.4494
        13                         -0.1267446              -3.4489
        14                          0.1348960               3.6707
        15                          0.9525156              25.9193
        16                          1.4138194              38.4720
      -------------------------------------------------------------
                  HL-Gap            0.1421884 Eh            3.8691 eV

     #   Z        covCN         q      C6AA      Î±(0)
     1   6 C      0.982    -0.028    36.764    10.185
     2   6 C      1.962     0.014    30.711     8.949
     3   6 C      1.892     0.160    27.264     8.433
     4   7 N      0.911    -0.146    24.153     7.108

Wiberg/Mayer (AO) data.
largest (>0.10) Wiberg bond orders for each atom
          total WBO             WBO to atom ...

molecular dipole:
                 x           y           z       tot (Debye)
 q only:        0.217       0.004      -0.005
   full:        0.569       0.010      -0.013       1.447

 projected vibrational frequencies (cm-1)
eigval :       -0.00    -0.00    -0.00     0.00     0.00     0.00
eigval :      177.24   362.51   389.83   914.99  2219.83  2362.16

   temp. (K)  partition function   enthalpy   heat capacity  entropy
                                   cal/mol     cal/K/mol   cal/K/mol   J/K/mol
  10.00  VIB   1.00                    0.000      0.000     -0.008
         ROT   1.19                   29.809      2.981      3.334
         INT   1.19                   29.809      2.981      3.326
         TR   0.210E+25               49.681      4.968     20.778
         TOT                          79.4904     7.9490    24.1044   100.8526

       T/K    H(0)-H(T)+PV         H(T)/Eh          T*S/Eh         G(T)/Eh
   ------------------------------------------------------------------------
    298.15    0.509256E-02    0.197334E-01    0.264615E-01   -0.672817E-02
    120.00    0.166813E-02    0.163089E-01    0.859285E-02    0.771607E-02
    100.00    0.135072E-02    0.159915E-01    0.687173E-02    0.911979E-02
     80.00    0.105222E-02    0.156930E-01    0.523133E-02    0.104617E-01
     60.00    0.772173E-03    0.154130E-01    0.368217E-02    0.117308E-01
     40.00    0.508087E-03    0.151489E-01    0.224093E-02    0.129079E-01
     20.00    0.253354E-03    0.148942E-01    0.943966E-03    0.139502E-01
     10.00    0.126676E-03    0.147675E-01    0.384127E-03    0.143833E-01 (used)
   ------------------------------------------------------------------------

         :::::::::::::::::::::::::::::::::::::::::::::::::::::
         ::                  THERMODYNAMIC                  ::
         :::::::::::::::::::::::::::::::::::::::::::::::::::::
         :: total free energy          -9.085019333210 Eh   ::
         ::.................................................::
         :: total energy               -9.099402677653 Eh   ::
         :: zero point energy           0.014640795874 Eh   ::
         :: G(RRHO) w/o ZPVE           -0.000257451431 Eh   ::
         :: G(RRHO) contrib.            0.014383344443 Eh   ::
         :::::::::::::::::::::::::::::::::::::::::::::::::::::

           -------------------------------------------------
          | TOTAL ENERGY               -9.099402677653 Eh   |
          | TOTAL ENTHALPY             -9.084635205763 Eh   |
          | TOTAL FREE ENERGY          -9.085019333210 Eh   |
          | GRADIENT NORM               0.000477939075 Eh/Î± |
          | HOMO-LUMO GAP               3.869141981481 eV   |
           -------------------------------------------------

 * finished run on 2020/05/12 at 11:45:04.391
