   * xtb version 6.2.2 (9d81278992624c895f80dd42a50cac0aa55982e2) compiled by '@Darwin' on 04/03/2020
          program call               : xtb --input H2C2N1_13_S_1.input H2C2N1_13_S_1.xyz --ohess --molden --namespace H2C2N1_13_S_1 output.out
          number of atoms            :                     5
          number of electrons        :                    15
          charge                     :                     0
          spin                       :                   0.5

   ID    Z sym.   atoms
    1    6 C      1, 3
    2    7 N      2
    3    1 H      4, 5

          :  Hamiltonian                  GFN2-xTB          :
 * total energy  :    -7.9214182 Eh     change       -0.3170175E-10 Eh
 * total energy  :    -7.9458023 Eh     change       -0.2438401E-01 Eh
 * total energy  :    -7.8624154 Eh     change        0.8338681E-01 Eh
 * total energy  :    -7.9550692 Eh     change       -0.9265376E-01 Eh
 * total energy  :    -7.9555294 Eh     change       -0.4601804E-03 Eh
 * total energy  :    -7.9556580 Eh     change       -0.1286198E-03 Eh
 * total energy  :    -7.9556596 Eh     change       -0.1557523E-05 Eh
   *** GEOMETRY OPTIMIZATION CONVERGED AFTER 7 ITERATIONS ***

 final structure:
================
5
 xtb: 6.2.2 (9d81278992624c895f80dd42a50cac0aa55982e2)
C         1.04293614997621    0.03283556438070    0.65714014373023
N        -0.33571998449373    0.00156656407012   -0.00413284574295
C         1.05843578840737   -0.04264149283047   -0.63127947169093
H        -0.88741709831246   -0.84820646132569    0.03901056675141
H        -0.87823485557740    0.85644582570534   -0.06073939304777

          :  Hamiltonian                  GFN2-xTB          :
         :: gradient norm              0.000306148451 Eh/a0 ::
         :: HOMO-LUMO gap              4.082749805824 eV    ::
         :: SCC energy                -8.067863952075 Eh    ::
         :: -> dispersion             -0.001514449198 Eh    ::
         :: repulsion energy           0.112204362790 Eh    ::

    * Orbital Energies and Occupations

         #    Occupation            Energy/Eh            Energy/eV
      -------------------------------------------------------------
         1        2.0000           -0.6769585             -18.4210
         2        2.0000           -0.6276644             -17.0796
         3        2.0000           -0.5787503             -15.7486
         4        2.0000           -0.5333396             -14.5129
         5        2.0000           -0.4985274             -13.5656
         6        2.0000           -0.4071261             -11.0785
         7        2.0000           -0.3906717             -10.6307
         8        1.0000           -0.3421125              -9.3094 (HOMO)
         9                         -0.1920742              -5.2266 (LUMO)
        10                         -0.0923293              -2.5124
        11                         -0.0706164              -1.9216
        12                          0.1127561               3.0682
        13                          0.1849378               5.0324
        14                          0.6458380              17.5741
      -------------------------------------------------------------
                  HL-Gap            0.1500382 Eh            4.0827 eV

     #   Z        covCN         q      C6AA      Î±(0)
     1   6 C      1.881    -0.111    34.218     9.448
     2   7 N      3.520    -0.093    23.055     7.131
     3   6 C      1.881    -0.111    34.218     9.448
     4   1 H      0.860     0.158     1.349     1.819
Molecule has the following symmetry elements: (C2) 2*(sigma)
It seems to be the C2v point group
     5   1 H      0.860     0.158     1.349     1.819

Wiberg/Mayer (AO) data.
largest (>0.10) Wiberg bond orders for each atom
          total WBO             WBO to atom ...

molecular dipole:
                 x           y           z       tot (Debye)
 q only:       -0.909       0.004      -0.011
   full:       -1.576       0.007      -0.019       4.005

 projected vibrational frequencies (cm-1)
eigval :       -0.00    -0.00    -0.00     0.00     0.00     0.00
eigval :      402.94   743.56   833.15   937.53   991.17  1482.44
eigval :     1769.44  3344.37  3349.63

   temp. (K)  partition function   enthalpy   heat capacity  entropy
                                   cal/mol     cal/K/mol   cal/K/mol   J/K/mol
  10.00  VIB   1.00                    0.000      0.000     -0.001
         ROT   20.9                   29.809      2.981      9.020
         INT   20.9                   29.809      2.981      9.020
         TR   0.151E+25               49.681      4.968     20.115
         TOT                          79.4904     7.9490    29.1341   121.8973

       T/K    H(0)-H(T)+PV         H(T)/Eh          T*S/Eh         G(T)/Eh
   ------------------------------------------------------------------------
    298.15    0.434087E-02    0.359031E-01    0.274340E-01    0.846917E-02
    120.00    0.153559E-02    0.330979E-01    0.936630E-02    0.237316E-01
    100.00    0.127246E-02    0.328347E-01    0.756553E-02    0.252692E-01
     80.00    0.101472E-02    0.325770E-01    0.582251E-02    0.267545E-01
     60.00    0.760173E-03    0.323224E-01    0.414729E-02    0.281751E-01
     40.00    0.506705E-03    0.320690E-01    0.255938E-02    0.295096E-01
     20.00    0.253352E-03    0.318156E-01    0.110413E-02    0.307115E-01
     10.00    0.126676E-03    0.316889E-01    0.464282E-03    0.312247E-01 (used)
   ------------------------------------------------------------------------

         :::::::::::::::::::::::::::::::::::::::::::::::::::::
         ::                  THERMODYNAMIC                  ::
         :::::::::::::::::::::::::::::::::::::::::::::::::::::
         :: total free energy          -7.924434907953 Eh   ::
         ::.................................................::
         :: total energy               -7.955659569291 Eh   ::
         :: zero point energy           0.031562267518 Eh   ::
         :: G(RRHO) w/o ZPVE           -0.000337606180 Eh   ::
         :: G(RRHO) contrib.            0.031224661338 Eh   ::
         :::::::::::::::::::::::::::::::::::::::::::::::::::::

           -------------------------------------------------
          | TOTAL ENERGY               -7.955659569291 Eh   |
          | TOTAL ENTHALPY             -7.923970625757 Eh   |
          | TOTAL FREE ENERGY          -7.924434907953 Eh   |
          | GRADIENT NORM               0.000306160391 Eh/Î± |
          | HOMO-LUMO GAP               4.082748022246 eV   |
           -------------------------------------------------

 * finished run on 2020/05/12 at 11:44:48.759
