   * xtb version 6.2.2 (9d81278992624c895f80dd42a50cac0aa55982e2) compiled by '@Darwin' on 04/03/2020
          program call               : xtb --input H2C2N1_11_S_1.input H2C2N1_11_S_1.xyz --ohess --molden --namespace H2C2N1_11_S_1 output.out
          number of atoms            :                     5
          number of electrons        :                    15
          charge                     :                     0
          spin                       :                   0.5

   ID    Z sym.   atoms
    1    6 C      1, 3
    2    7 N      2
    3    1 H      4, 5

          :  Hamiltonian                  GFN2-xTB          :
 * total energy  :    -7.9613553 Eh     change        0.2349276E-09 Eh
 * total energy  :    -7.9827685 Eh     change       -0.2141325E-01 Eh
 * total energy  :    -7.9995755 Eh     change       -0.1680702E-01 Eh
 * total energy  :    -8.0048053 Eh     change       -0.5229722E-02 Eh
 * total energy  :    -8.0077456 Eh     change       -0.2940335E-02 Eh
 * total energy  :    -8.0084893 Eh     change       -0.7436845E-03 Eh
 * total energy  :    -8.0087275 Eh     change       -0.2382650E-03 Eh
 * total energy  :    -8.0088200 Eh     change       -0.9241568E-04 Eh
 * total energy  :    -8.0088554 Eh     change       -0.3548190E-04 Eh
 * total energy  :    -8.0088721 Eh     change       -0.1669497E-04 Eh
 * total energy  :    -8.0088792 Eh     change       -0.7043461E-05 Eh
 * total energy  :    -8.0088816 Eh     change       -0.2449048E-05 Eh
   *** GEOMETRY OPTIMIZATION CONVERGED AFTER 12 ITERATIONS ***

 final structure:
================
5
 xtb: 6.2.2 (9d81278992624c895f80dd42a50cac0aa55982e2)
C         0.65432174069006    0.06393474417934   -0.00014787796344
N        -0.67811900242851   -0.05365693165913    0.31865159530424
C        -0.06360728328049    1.21266944030278   -0.10238218884979
H         1.46883893297068   -0.61764175503866   -0.06133971951173
H        -1.38143538795173   -0.60530549778434   -0.15478180897929

          :  Hamiltonian                  GFN2-xTB          :
         :: gradient norm              0.000414470369 Eh/a0 ::
         :: HOMO-LUMO gap              2.884623778062 eV    ::
         :: SCC energy                -8.118483517704 Eh    ::
         :: -> dispersion             -0.001517695045 Eh    ::
         :: repulsion energy           0.109601857343 Eh    ::

    * Orbital Energies and Occupations

         #    Occupation            Energy/Eh            Energy/eV
      -------------------------------------------------------------
         1        2.0000           -0.6922172             -18.8362
         2        2.0000           -0.6029530             -16.4072
         3        2.0000           -0.5806193             -15.7995
         4        2.0000           -0.5354425             -14.5701
         5        2.0000           -0.4990520             -13.5799
         6        2.0000           -0.4612972             -12.5525
         7        2.0000           -0.4005892             -10.9006
         8        1.0000           -0.3469821              -9.4419 (HOMO)
         9                         -0.2409742              -6.5572 (LUMO)
        10                         -0.0603758              -1.6429
        11                          0.0281257               0.7653
        12                          0.1090580               2.9676
        13                          0.2625418               7.1441
        14                          0.6533974              17.7798
      -------------------------------------------------------------
                  HL-Gap            0.1060079 Eh            2.8846 eV

     #   Z        covCN         q      C6AA      Î±(0)
     1   6 C      2.817     0.068    26.459     8.428
     2   7 N      2.676    -0.127    23.756     7.239
     3   6 C      1.887    -0.146    35.244     9.588
     4   1 H      0.927     0.049     2.332     2.388
     5   1 H      0.860     0.155     1.368     1.832

Wiberg/Mayer (AO) data.
largest (>0.10) Wiberg bond orders for each atom
          total WBO             WBO to atom ...

molecular dipole:
                 x           y           z       tot (Debye)
 q only:       -0.004      -0.547      -0.099
   full:        0.037      -1.298      -0.203       3.341

 projected vibrational frequencies (cm-1)
eigval :       -0.00    -0.00     0.00     0.00     0.00     0.00
eigval :      601.63   746.26   826.89   905.10   940.14  1236.17
eigval :     1605.49  3212.97  3322.07

   temp. (K)  partition function   enthalpy   heat capacity  entropy
                                   cal/mol     cal/K/mol   cal/K/mol   J/K/mol
  10.00  VIB   1.00                    0.000      0.000     -0.000
         ROT   40.6                   29.809      2.981     10.341
         INT   40.6                   29.809      2.981     10.341
         TR   0.151E+25               49.681      4.968     20.115
         TOT                          79.4904     7.9490    30.4557   127.4268

       T/K    H(0)-H(T)+PV         H(T)/Eh          T*S/Eh         G(T)/Eh
   ------------------------------------------------------------------------
    298.15    0.421928E-02    0.347393E-01    0.278537E-01    0.688560E-02
    120.00    0.152290E-02    0.320429E-01    0.960350E-02    0.224394E-01
    100.00    0.126735E-02    0.317873E-01    0.777006E-02    0.240173E-01
     80.00    0.101347E-02    0.315335E-01    0.598952E-02    0.255439E-01
     60.00    0.760058E-03    0.312800E-01    0.427350E-02    0.270065E-01
     40.00    0.506704E-03    0.310267E-01    0.264361E-02    0.283831E-01
     20.00    0.253352E-03    0.307733E-01    0.114625E-02    0.296271E-01
     10.00    0.126676E-03    0.306467E-01    0.485343E-03    0.301613E-01 (used)
   ------------------------------------------------------------------------

         :::::::::::::::::::::::::::::::::::::::::::::::::::::
         ::                  THERMODYNAMIC                  ::
         :::::::::::::::::::::::::::::::::::::::::::::::::::::
         :: total free energy          -7.978720312781 Eh   ::
         ::.................................................::
         :: total energy               -8.008881628926 Eh   ::
         :: zero point energy           0.030519983221 Eh   ::
         :: G(RRHO) w/o ZPVE           -0.000358667077 Eh   ::
         :: G(RRHO) contrib.            0.030161316145 Eh   ::
         :::::::::::::::::::::::::::::::::::::::::::::::::::::

           -------------------------------------------------
          | TOTAL ENERGY               -8.008881628926 Eh   |
          | TOTAL ENTHALPY             -7.978234969689 Eh   |
          | TOTAL FREE ENERGY          -7.978720312781 Eh   |
          | GRADIENT NORM               0.000414528683 Eh/Î± |
          | HOMO-LUMO GAP               2.884623069897 eV   |
           -------------------------------------------------

 * finished run on 2020/05/12 at 11:44:48.239
