   * xtb version 6.2.2 (9d81278992624c895f80dd42a50cac0aa55982e2) compiled by '@Darwin' on 04/03/2020
          program call               : xtb --input C2O1_1_S_2.input C2O1_1_S_2.xyz --ohess --molden --namespace C2O1_1_S_2 output.out
          number of atoms            :                     3
          number of electrons        :                    14
          charge                     :                     0
          spin                       :                   1.0

   ID    Z sym.   atoms
    1    8 O      1
    2    6 C      2, 3

          :  Hamiltonian                  GFN2-xTB          :
 * total energy  :    -7.9625079 Eh     change        0.2326521E-09 Eh
 * total energy  :    -7.9833919 Eh     change       -0.2088405E-01 Eh
 * total energy  :    -7.9870746 Eh     change       -0.3682666E-02 Eh
 * total energy  :    -7.9880273 Eh     change       -0.9526994E-03 Eh
 * total energy  :    -7.9880509 Eh     change       -0.2365905E-04 Eh
 * total energy  :    -7.9880518 Eh     change       -0.8933542E-06 Eh
   *** GEOMETRY OPTIMIZATION CONVERGED AFTER 6 ITERATIONS ***

 final structure:
================
3
 xtb: 6.2.2 (9d81278992624c895f80dd42a50cac0aa55982e2)
O         0.00108230412596    0.56804916584966    0.00000000000000
C        -0.95395680265093   -0.28220756184978    0.00000000000000
C         0.95287449852497   -0.28584260399988    0.00000000000000

          :  Hamiltonian                  GFN2-xTB          :
         :: gradient norm              0.000299834313 Eh/a0 ::
         :: HOMO-LUMO gap              1.989256503737 eV    ::
         :: SCC energy                -8.031206959926 Eh    ::
         :: -> dispersion             -0.000831618863 Eh    ::
         :: repulsion energy           0.043155140592 Eh    ::

    * Orbital Energies and Occupations

         #    Occupation            Energy/Eh            Energy/eV
      -------------------------------------------------------------
         1        2.0000           -0.8318978             -22.6371
         2        2.0000           -0.7394563             -20.1216
         3        2.0000           -0.6881911             -18.7266
         4        2.0000           -0.6517520             -17.7351
         5        2.0000           -0.5102871             -13.8856
         6        2.0000           -0.5102087             -13.8835
         7        1.0000           -0.4113189             -11.1926
         8        1.0000           -0.3852770             -10.4839 (HOMO)
         9                         -0.3121732              -8.4947 (LUMO)
        10                         -0.3033497              -8.2546
        11                          0.2622822               7.1371
        12                          0.2694256               7.3314
      -------------------------------------------------------------
                  HL-Gap            0.0731038 Eh            1.9893 eV

     #   Z        covCN         q      C6AA      Î±(0)
     1   8 O      1.710     0.093    13.334     4.930
     2   6 C      1.531    -0.047    34.370     9.632
     3   6 C      1.531    -0.047    34.370     9.632

Wiberg/Mayer (AO) data.
largest (>0.10) Wiberg bond orders for each atom
          total WBO             WBO to atom ...

molecular dipole:
                 x           y           z       tot (Debye)
 q only:        0.000       0.150      -0.000
   full:        0.001       0.635      -0.000       1.613

 projected vibrational frequencies (cm-1)
eigval :       -0.00    -0.00    -0.00    -0.00    -0.00     0.00
eigval :      493.38   928.95  1426.50

   temp. (K)  partition function   enthalpy   heat capacity  entropy
                                   cal/mol     cal/K/mol   cal/K/mol   J/K/mol
  10.00  VIB   1.00                    0.000      0.000     -0.000
         ROT   15.5                   29.809      2.981      8.432
         INT   15.5                   29.809      2.981      8.432
         TR   0.150E+25               49.681      4.968     20.113
         TOT                          79.4904     7.9490    28.5450   119.4325

       T/K    H(0)-H(T)+PV         H(T)/Eh          T*S/Eh         G(T)/Eh
   ------------------------------------------------------------------------
    298.15    0.406094E-02    0.105511E-01    0.267688E-01   -0.162177E-01
    120.00    0.152625E-02    0.801636E-02    0.924214E-02   -0.122578E-02
    100.00    0.126863E-02    0.775873E-02    0.746704E-02    0.291690E-03
     80.00    0.101372E-02    0.750383E-02    0.574621E-02    0.175762E-02
     60.00    0.760072E-03    0.725018E-02    0.409082E-02    0.315936E-02
     40.00    0.506704E-03    0.699681E-02    0.252181E-02    0.447500E-02
     20.00    0.253352E-03    0.674346E-02    0.108535E-02    0.565811E-02
     10.00    0.126676E-03    0.661679E-02    0.454894E-03    0.616189E-02 (used)
   ------------------------------------------------------------------------

         :::::::::::::::::::::::::::::::::::::::::::::::::::::
         ::                  THERMODYNAMIC                  ::
         :::::::::::::::::::::::::::::::::::::::::::::::::::::
         :: total free energy          -7.981889927705 Eh   ::
         ::.................................................::
         :: total energy               -7.988051818600 Eh   ::
         :: zero point energy           0.006490109093 Eh   ::
         :: G(RRHO) w/o ZPVE           -0.000328218198 Eh   ::
         :: G(RRHO) contrib.            0.006161890896 Eh   ::
         :::::::::::::::::::::::::::::::::::::::::::::::::::::

           -------------------------------------------------
          | TOTAL ENERGY               -7.988051818600 Eh   |
          | TOTAL ENTHALPY             -7.981435033491 Eh   |
          | TOTAL FREE ENERGY          -7.981889927705 Eh   |
          | GRADIENT NORM               0.000299841266 Eh/Î± |
          | HOMO-LUMO GAP               1.989256412271 eV   |
           -------------------------------------------------

 * finished run on 2020/05/12 at 11:43:50.855
