   * xtb version 6.2.2 (9d81278992624c895f80dd42a50cac0aa55982e2) compiled by '@Darwin' on 04/03/2020
          program call               : xtb --input H1C4_1_S_3.input H1C4_1_S_3.xyz --ohess --molden --namespace H1C4_1_S_3 output.out
          number of atoms            :                     5
          number of electrons        :                    17
          charge                     :                     0
          spin                       :                   1.5

   ID    Z sym.   atoms
    1    6 C      1-4
    2    1 H      5

          :  Hamiltonian                  GFN2-xTB          :
 * total energy  :    -8.4291733 Eh     change       -0.5021297E-08 Eh
 * total energy  :    -8.4625015 Eh     change       -0.3332819E-01 Eh
 * total energy  :    -8.5139028 Eh     change       -0.5140130E-01 Eh
 * total energy  :    -8.5737975 Eh     change       -0.5989470E-01 Eh
 * total energy  :    -8.5734051 Eh     change        0.3923219E-03 Eh
 * total energy  :    -8.5741168 Eh     change       -0.7117160E-03 Eh
 * total energy  :    -8.5744061 Eh     change       -0.2892755E-03 Eh
 * total energy  :    -8.5745559 Eh     change       -0.1498061E-03 Eh
 * total energy  :    -8.5745891 Eh     change       -0.3320974E-04 Eh
 * total energy  :    -8.5745903 Eh     change       -0.1174085E-05 Eh
 * total energy  :    -8.5745911 Eh     change       -0.7723342E-06 Eh
   *** GEOMETRY OPTIMIZATION CONVERGED AFTER 11 ITERATIONS ***

 final structure:
================
5
 xtb: 6.2.2 (9d81278992624c895f80dd42a50cac0aa55982e2)
C        -0.48108517417691    0.79140879621842   -0.64565265133412
C         0.02486248130966   -0.01598954365966    0.50865436988981
C         0.85654579671125    0.02547755155672   -0.73524581695109
C        -0.47684732320892   -0.75166703638772   -0.69465106221117
H         0.07652421936492   -0.04923076772777    1.56689516060657

          :  Hamiltonian                  GFN2-xTB          :
         :: gradient norm              0.000145574062 Eh/a0 ::
         :: HOMO-LUMO gap              8.073868577447 eV    ::
         :: SCC energy                -8.682472997743 Eh    ::
         :: -> dispersion             -0.002003192669 Eh    ::
         :: repulsion energy           0.107881883371 Eh    ::

    * Orbital Energies and Occupations

         #    Occupation            Energy/Eh            Energy/eV
      -------------------------------------------------------------
         1        2.0000           -0.7277711             -19.8037
         2        2.0000           -0.6112027             -16.6317
         3        2.0000           -0.5899037             -16.0521
         4        2.0000           -0.5898933             -16.0518
         5        2.0000           -0.5191956             -14.1280
         6        1.9802           -0.4332756             -11.7900
         7        1.9800           -0.4332662             -11.7898
         8        1.0385           -0.4265097             -11.6059
         9        1.0006           -0.4225751             -11.4989
        10        1.0006           -0.4225209             -11.4974 (HOMO)
        11                         -0.1258117              -3.4235 (LUMO)
        12                         -0.1099787              -2.9927
        13                         -0.1099444              -2.9917
        14                          0.0302911               0.8243
        15                          0.1515875               4.1249
        16                          0.1516798               4.1274
        17                          0.4394697              11.9586
      -------------------------------------------------------------
                  HL-Gap            0.2967092 Eh            8.0739 eV

     #   Z        covCN         q      C6AA      Î±(0)
     1   6 C      2.924    -0.039    28.978     8.828
     2   6 C      3.859     0.060    19.543     6.287
     3   6 C      2.924    -0.039    28.981     8.828
     4   6 C      2.924    -0.039    28.981     8.828
     5   1 H      0.927     0.059     2.214     2.327

Wiberg/Mayer (AO) data.
largest (>0.10) Wiberg bond orders for each atom
          total WBO             WBO to atom ...

molecular dipole:
                 x           y           z       tot (Debye)
 q only:        0.019      -0.012       0.386
   full:        0.056      -0.035       1.160       2.953

 projected vibrational frequencies (cm-1)
eigval :       -0.00    -0.00     0.00     0.00     0.00     0.00
eigval :     -984.44  -979.54   482.10   482.44   772.50   772.53
eigval :      949.88  1433.15  3272.12

   temp. (K)  partition function   enthalpy   heat capacity  entropy
                                   cal/mol     cal/K/mol   cal/K/mol   J/K/mol
  10.00  VIB   1.00                    0.000      0.000     -0.001
         ROT   26.1                   29.809      2.981      9.460
         INT   26.1                   29.809      2.981      9.460
         TR   0.204E+25               49.681      4.968     20.719
         TOT                          79.4904     7.9490    30.1787   126.2678

       T/K    H(0)-H(T)+PV         H(T)/Eh          T*S/Eh         G(T)/Eh
   ------------------------------------------------------------------------
    298.15    0.447655E-02    0.230772E-01    0.281079E-01   -0.503076E-02
    120.00    0.153441E-02    0.201350E-01    0.956418E-02    0.105708E-01
    100.00    0.127113E-02    0.198717E-01    0.773032E-02    0.121414E-01
     80.00    0.101417E-02    0.196148E-01    0.595503E-02    0.136597E-01
     60.00    0.760098E-03    0.193607E-01    0.424709E-02    0.151136E-01
     40.00    0.506704E-03    0.191073E-01    0.262596E-02    0.164813E-01
     20.00    0.253352E-03    0.188540E-01    0.113742E-02    0.177165E-01
     10.00    0.126676E-03    0.187273E-01    0.480929E-03    0.182463E-01 (used)
   ------------------------------------------------------------------------

         :::::::::::::::::::::::::::::::::::::::::::::::::::::
         ::                  THERMODYNAMIC                  ::
         :::::::::::::::::::::::::::::::::::::::::::::::::::::
         :: total free energy          -8.556344738285 Eh   ::
         ::.................................................::
         :: total energy               -8.574591085393 Eh   ::
         :: zero point energy           0.018600599632 Eh   ::
         :: G(RRHO) w/o ZPVE           -0.000354252524 Eh   ::
         :: G(RRHO) contrib.            0.018246347108 Eh   ::
         :::::::::::::::::::::::::::::::::::::::::::::::::::::

           -------------------------------------------------
          | TOTAL ENERGY               -8.574591085393 Eh   |
          | TOTAL ENTHALPY             -8.555863809745 Eh   |
          | TOTAL FREE ENERGY          -8.556344738285 Eh   |
          | GRADIENT NORM               0.000146160178 Eh/Î± |
          | HOMO-LUMO GAP               8.073867851768 eV   |
           -------------------------------------------------

 * finished run on 2020/05/12 at 11:45:08.426
