   * xtb version 6.2.2 (9d81278992624c895f80dd42a50cac0aa55982e2) compiled by '@Darwin' on 04/03/2020
          program call               : xtb --input C5_13_S_2.input C5_13_S_2.xyz --ohess --molden --namespace C5_13_S_2 output.out
          number of atoms            :                     5
          number of electrons        :                    20
          charge                     :                     0
          spin                       :                   1.0

   ID    Z sym.   atoms
    1    6 C      1-5

          :  Hamiltonian                  GFN2-xTB          :
 * total energy  :   -10.1286533 Eh     change        0.3881695E-10 Eh
 * total energy  :   -10.1636805 Eh     change       -0.3502727E-01 Eh
 * total energy  :   -10.1926162 Eh     change       -0.2893569E-01 Eh
 * total energy  :   -10.1979985 Eh     change       -0.5382320E-02 Eh
 * total energy  :   -10.2002053 Eh     change       -0.2206752E-02 Eh
 * total energy  :   -10.2012337 Eh     change       -0.1028421E-02 Eh
 * total energy  :   -10.2014333 Eh     change       -0.1996132E-03 Eh
 * total energy  :   -10.2014538 Eh     change       -0.2052155E-04 Eh
 * total energy  :   -10.2014581 Eh     change       -0.4232004E-05 Eh
 * total energy  :   -10.2014600 Eh     change       -0.1969853E-05 Eh
   *** GEOMETRY OPTIMIZATION CONVERGED AFTER 10 ITERATIONS ***

 final structure:
================
5
 xtb: 6.2.2 (9d81278992624c895f80dd42a50cac0aa55982e2)
C        -1.24404165778762   -0.47453372624285   -0.11352741418894
C         0.01601893086502   -0.73544613631255    0.49292670491122
C         0.64672016270248    0.82706740752759   -0.13645677990071
C         1.26802726440224   -0.41002389222907   -0.09898643078251
C        -0.68672370018212    0.79293634725688   -0.14395508003906

          :  Hamiltonian                  GFN2-xTB          :
         :: gradient norm              0.000817238236 Eh/a0 ::
         :: HOMO-LUMO gap              1.112497302196 eV    ::
         :: SCC energy               -10.377977949730 Eh    ::
         :: -> dispersion             -0.002787756142 Eh    ::
         :: repulsion energy           0.176517886268 Eh    ::

    * Orbital Energies and Occupations

         #    Occupation            Energy/Eh            Energy/eV
      -------------------------------------------------------------
         1        2.0000           -0.7340750             -19.9752
         2        2.0000           -0.6682849             -18.1850
         3        2.0000           -0.6386196             -17.3777
         4        2.0000           -0.5750210             -15.6471
         5        2.0000           -0.5521233             -15.0240
         6        2.0000           -0.5494490             -14.9513
         7        2.0000           -0.4902581             -13.3406
         8        2.0000           -0.4520277             -12.3003
         9        2.0000           -0.4359149             -11.8618
        10        1.0000           -0.4042157             -10.9993
        11        1.0000           -0.3971641             -10.8074 (HOMO)
        12                         -0.3562806              -9.6949 (LUMO)
        13                         -0.2801191              -7.6224
        14                         -0.2414970              -6.5715
        15                         -0.2123821              -5.7792
        16                          0.1017014               2.7674
        17                          0.2123127               5.7773
        18                          0.3385249               9.2117
        19                          0.4803367              13.0706
        20                          0.5006854              13.6243
      -------------------------------------------------------------
                  HL-Gap            0.0408835 Eh            1.1125 eV

     #   Z        covCN         q      C6AA      Î±(0)
     1   6 C      2.021    -0.061    32.661     9.230
     2   6 C      3.641     0.032    20.386     6.492
     3   6 C      2.859     0.045    26.988     8.515
     4   6 C      2.021    -0.061    32.661     9.230
     5   6 C      2.859     0.045    26.989     8.515

Wiberg/Mayer (AO) data.
largest (>0.10) Wiberg bond orders for each atom
          total WBO             WBO to atom ...

molecular dipole:
                 x           y           z       tot (Debye)
 q only:       -0.005       0.195       0.031
   full:       -0.018       0.691       0.102       1.776

 projected vibrational frequencies (cm-1)
eigval :       -0.00    -0.00    -0.00     0.00     0.00     0.00
eigval :     -201.58   306.30   385.93   498.58   792.00   949.84
eigval :     1286.21  1329.70  1477.21
Molecule has the following symmetry elements: (sigma)
It seems to be the Cs point group

   temp. (K)  partition function   enthalpy   heat capacity  entropy
                                   cal/mol     cal/K/mol   cal/K/mol   J/K/mol
  10.00  VIB   1.00                    0.000      0.000     -0.002
         ROT   163.                   29.809      2.981     13.097
         INT   163.                   29.809      2.981     13.095
         TR   0.277E+25               49.681      4.968     21.322
         TOT                          79.4904     7.9490    34.4174   144.0026

       T/K    H(0)-H(T)+PV         H(T)/Eh          T*S/Eh         G(T)/Eh
   ------------------------------------------------------------------------
    298.15    0.489025E-02    0.208961E-01    0.308137E-01   -0.991767E-02
    120.00    0.157997E-02    0.175858E-01    0.104328E-01    0.715303E-02
    100.00    0.129262E-02    0.172984E-01    0.843232E-02    0.886613E-02
     80.00    0.102108E-02    0.170269E-01    0.650376E-02    0.105231E-01
     60.00    0.761141E-03    0.167670E-01    0.465370E-02    0.121133E-01
     40.00    0.506729E-03    0.165126E-01    0.289626E-02    0.136163E-01
     20.00    0.253352E-03    0.162592E-01    0.127254E-02    0.149866E-01
     10.00    0.126676E-03    0.161325E-01    0.548477E-03    0.155840E-01 (used)
   ------------------------------------------------------------------------

         :::::::::::::::::::::::::::::::::::::::::::::::::::::
         ::                  THERMODYNAMIC                  ::
         :::::::::::::::::::::::::::::::::::::::::::::::::::::
         :: total free energy         -10.185876005987 Eh   ::
         ::.................................................::
         :: total energy              -10.201460034746 Eh   ::
         :: zero point energy           0.016005829671 Eh   ::
         :: G(RRHO) w/o ZPVE           -0.000421800912 Eh   ::
         :: G(RRHO) contrib.            0.015584028759 Eh   ::
         :::::::::::::::::::::::::::::::::::::::::::::::::::::

           -------------------------------------------------
          | TOTAL ENERGY              -10.201460034746 Eh   |
          | TOTAL ENTHALPY            -10.185327529060 Eh   |
          | TOTAL FREE ENERGY         -10.185876005987 Eh   |
          | GRADIENT NORM               0.000817248108 Eh/Î± |
          | HOMO-LUMO GAP               1.112497960740 eV   |
           -------------------------------------------------

 * finished run on 2020/05/12 at 11:44:37.323
