   * xtb version 6.2.2 (9d81278992624c895f80dd42a50cac0aa55982e2) compiled by '@Darwin' on 04/03/2020
          program call               : xtb --input C5_14_S_0.input C5_14_S_0.xyz --ohess --molden --namespace C5_14_S_0 output.out
          number of atoms            :                     5
          number of electrons        :                    20
          charge                     :                     0
          spin                       :                   0.0

   ID    Z sym.   atoms
    1    6 C      1-5

          :  Hamiltonian                  GFN2-xTB          :
 * total energy  :   -10.0746270 Eh     change       -0.2142819E-08 Eh
 * total energy  :   -10.1148225 Eh     change       -0.4019553E-01 Eh
 * total energy  :   -10.1071266 Eh     change        0.7695917E-02 Eh
 * total energy  :   -10.1450322 Eh     change       -0.3790562E-01 Eh
 * total energy  :   -10.1636251 Eh     change       -0.1859291E-01 Eh
 * total energy  :   -10.1830905 Eh     change       -0.1946539E-01 Eh
 * total energy  :   -10.1847611 Eh     change       -0.1670564E-02 Eh
 * total energy  :   -10.1856703 Eh     change       -0.9091991E-03 Eh
 * total energy  :   -10.1868311 Eh     change       -0.1160828E-02 Eh
 * total energy  :   -10.1890406 Eh     change       -0.2209451E-02 Eh
 * total energy  :   -10.2267405 Eh     change       -0.3289250E-02 Eh
 * total energy  :   -10.2273020 Eh     change       -0.5615532E-03 Eh
 * total energy  :   -10.2278353 Eh     change       -0.5332241E-03 Eh
 * total energy  :   -10.2279316 Eh     change       -0.9632501E-04 Eh
 * total energy  :   -10.2279633 Eh     change       -0.3169069E-04 Eh
 * total energy  :   -10.2280144 Eh     change       -0.5111756E-04 Eh
 * total energy  :   -10.2280322 Eh     change       -0.1785038E-04 Eh
 * total energy  :   -10.2280400 Eh     change       -0.7735184E-05 Eh
 * total energy  :   -10.2280444 Eh     change       -0.4378324E-05 Eh
   *** GEOMETRY OPTIMIZATION CONVERGED AFTER 25 ITERATIONS ***

 final structure:
================
5
 xtb: 6.2.2 (9d81278992624c895f80dd42a50cac0aa55982e2)
C         1.79243372179767   -0.00414792733931    0.02642251954557
C         0.52346487749510   -0.00520480971151    0.02388391099788
C        -1.14007296205630   -0.12867903138382    0.37258433327091
C        -0.58438943594958   -0.93674638794784   -0.54822902971957
C        -0.59143620128689    1.07477915638248    0.12533726590520

          :  Hamiltonian                  GFN2-xTB          :
         :: gradient norm              0.000393638036 Eh/a0 ::
         :: HOMO-LUMO gap              1.997035435331 eV    ::
         :: SCC energy               -10.417089460124 Eh    ::
         :: -> dispersion             -0.002878320300 Eh    ::
         :: repulsion energy           0.189045032094 Eh    ::

    * Orbital Energies and Occupations

         #    Occupation            Energy/Eh            Energy/eV
      -------------------------------------------------------------
         1        2.0000           -0.7519322             -20.4611
         2        2.0000           -0.6912223             -18.8091
         3        2.0000           -0.6643898             -18.0790
         4        2.0000           -0.5928537             -16.1324
         5        2.0000           -0.5729934             -15.5919
         6        2.0000           -0.5451272             -14.8337
         7        2.0000           -0.4969679             -13.5232
         8        2.0000           -0.4724387             -12.8557
         9        2.0000           -0.4678053             -12.7296
        10        2.0000           -0.4535667             -12.3422 (HOMO)
        11                         -0.3801770             -10.3451 (LUMO)
        12                         -0.3577217              -9.7341
        13                         -0.3551182              -9.6633
        14                         -0.2608311              -7.0976
        15                         -0.2163459              -5.8871
        16                         -0.0105801              -0.2879
        17                         -0.0039835              -0.1084
        18                          0.3541726               9.6375
        19                          0.4810564              13.0902
        20                          0.7344049              19.9842
      -------------------------------------------------------------
                  HL-Gap            0.0733897 Eh            1.9970 eV

     #   Z        covCN         q      C6AA      Î±(0)
     1   6 C      0.982    -0.106    39.300    10.530
     2   6 C      3.848     0.148    18.178     6.064
     3   6 C      2.885     0.097    25.840     8.334
     4   6 C      2.208    -0.070    32.262     9.193
     5   6 C      2.208    -0.070    32.261     9.193

Wiberg/Mayer (AO) data.
largest (>0.10) Wiberg bond orders for each atom
          total WBO             WBO to atom ...

molecular dipole:
                 x           y           z       tot (Debye)
 q only:       -0.268      -0.042       0.125
   full:       -0.713      -0.155       0.458       2.190

 projected vibrational frequencies (cm-1)
eigval :       -0.00    -0.00    -0.00     0.00     0.00     0.00
eigval :      236.30   318.64   404.44   519.36   610.98   721.80
eigval :     1429.01  1475.17  1772.53

   temp. (K)  partition function   enthalpy   heat capacity  entropy
                                   cal/mol     cal/K/mol   cal/K/mol   J/K/mol
  10.00  VIB   1.00                    0.000      0.000     -0.005
         ROT   206.                   29.809      2.981     13.566
         INT   206.                   29.809      2.981     13.561
         TR   0.277E+25               49.681      4.968     21.322
         TOT                          79.4904     7.9490    34.8834   145.9521

       T/K    H(0)-H(T)+PV         H(T)/Eh          T*S/Eh         G(T)/Eh
   ------------------------------------------------------------------------
    298.15    0.546732E-02    0.225267E-01    0.319851E-01   -0.945840E-02
    120.00    0.164159E-02    0.187010E-01    0.106052E-01    0.809579E-02
    100.00    0.132628E-02    0.183857E-01    0.855064E-02    0.983505E-02
     80.00    0.103526E-02    0.180947E-01    0.658116E-02    0.115135E-01
     60.00    0.764616E-03    0.178240E-01    0.470266E-02    0.131214E-01
     40.00    0.506939E-03    0.175664E-01    0.292636E-02    0.146400E-01
     20.00    0.253352E-03    0.173128E-01    0.128743E-02    0.160253E-01
     10.00    0.126676E-03    0.171861E-01    0.555902E-03    0.166302E-01 (used)
   ------------------------------------------------------------------------

         :::::::::::::::::::::::::::::::::::::::::::::::::::::
         ::                  THERMODYNAMIC                  ::
         :::::::::::::::::::::::::::::::::::::::::::::::::::::
         :: total free energy         -10.211414169363 Eh   ::
         ::.................................................::
         :: total energy              -10.228044355008 Eh   ::
         :: zero point energy           0.017059411912 Eh   ::
         :: G(RRHO) w/o ZPVE           -0.000429226268 Eh   ::
         :: G(RRHO) contrib.            0.016630185644 Eh   ::
         :::::::::::::::::::::::::::::::::::::::::::::::::::::

           -------------------------------------------------
          | TOTAL ENERGY              -10.228044355008 Eh   |
          | TOTAL ENTHALPY            -10.210858267080 Eh   |
          | TOTAL FREE ENERGY         -10.211414169363 Eh   |
          | GRADIENT NORM               0.000393780417 Eh/Î± |
          | HOMO-LUMO GAP               1.997035980887 eV   |
           -------------------------------------------------

 * finished run on 2020/05/12 at 11:44:37.612
