   * xtb version 6.2.2 (9d81278992624c895f80dd42a50cac0aa55982e2) compiled by '@Darwin' on 04/03/2020
          program call               : xtb --input C4N1_30_S_3.input C4N1_30_S_3.xyz --ohess --molden --namespace C4N1_30_S_3 output.out
          number of atoms            :                     5
          number of electrons        :                    21
          charge                     :                     0
          spin                       :                   1.5

   ID    Z sym.   atoms
    1    7 N      1
    2    6 C      2-5

          :  Hamiltonian                  GFN2-xTB          :
 * total energy  :   -10.9578773 Eh     change       -0.2543459E-09 Eh
 * total energy  :   -10.9862359 Eh     change       -0.2835861E-01 Eh
 * total energy  :   -11.0116277 Eh     change       -0.2539180E-01 Eh
 * total energy  :   -11.0218434 Eh     change       -0.1021568E-01 Eh
 * total energy  :   -11.0318237 Eh     change       -0.9980325E-02 Eh
 * total energy  :   -11.0353289 Eh     change       -0.3505218E-02 Eh
 * total energy  :   -11.0370135 Eh     change       -0.1684526E-02 Eh
 * total energy  :   -11.0382704 Eh     change       -0.1256942E-02 Eh
 * total energy  :   -11.0387131 Eh     change       -0.4427152E-03 Eh
 * total energy  :   -11.0389086 Eh     change       -0.1954730E-03 Eh
 * total energy  :   -11.0389183 Eh     change       -0.9726212E-05 Eh
 * total energy  :   -11.0389313 Eh     change       -0.1294948E-04 Eh
 * total energy  :   -11.0389381 Eh     change       -0.6793567E-05 Eh
 * total energy  :   -11.0389429 Eh     change       -0.4856028E-05 Eh
 * total energy  :   -11.0389452 Eh     change       -0.2244946E-05 Eh
   *** GEOMETRY OPTIMIZATION CONVERGED AFTER 15 ITERATIONS ***

 final structure:
================
5
 xtb: 6.2.2 (9d81278992624c895f80dd42a50cac0aa55982e2)
N        -1.04532131590119    0.79189772292352    0.03807971095684
C         0.26078270898154    0.80857486699125    0.05533711145515
C         0.42605717285984   -1.02260360776028   -0.06067532790630
C         1.33531045030774   -0.04559820945937    0.01507106771102
C        -0.97682901624794   -0.53227177269512   -0.04781256221671

          :  Hamiltonian                  GFN2-xTB          :
         :: gradient norm              0.000458572463 Eh/a0 ::
         :: HOMO-LUMO gap              2.770389033277 eV    ::
         :: SCC energy               -11.205253142275 Eh    ::
         :: -> dispersion             -0.002738146061 Eh    ::
         :: repulsion energy           0.166307942534 Eh    ::

    * Orbital Energies and Occupations

         #    Occupation            Energy/Eh            Energy/eV
      -------------------------------------------------------------
         1        2.0000           -0.7453489             -20.2820
         2        2.0000           -0.6878134             -18.7164
         3        2.0000           -0.6439047             -17.5215
         4        2.0000           -0.5944045             -16.1746
         5        2.0000           -0.5798919             -15.7797
         6        2.0000           -0.5756074             -15.6631
         7        2.0000           -0.5042856             -13.7223
         8        2.0000           -0.4642513             -12.6329
         9        2.0000           -0.4503402             -12.2544
        10        1.0000           -0.4156930             -11.3116
        11        1.0000           -0.4148081             -11.2875
        12        1.0000           -0.3953813             -10.7589 (HOMO)
        13                         -0.2935715              -7.9885 (LUMO)
        14                         -0.2505154              -6.8169
        15                         -0.2158607              -5.8739
        16                          0.1147873               3.1235
        17                          0.1462348               3.9793
        18                          0.2801024               7.6220
        19                          0.4068959              11.0722
        20                          0.6218470              16.9213
      -------------------------------------------------------------
                  HL-Gap            0.1018098 Eh            2.7704 eV

     #   Z        covCN         q      C6AA      Î±(0)
     1   7 N      1.836    -0.146    24.938     7.400
     2   6 C      3.478     0.150    19.915     6.675
     3   6 C      2.757     0.004    27.922     8.653
     4   6 C      1.988    -0.051    32.419     9.195
     5   6 C      2.718     0.043    27.015     8.508

Wiberg/Mayer (AO) data.
largest (>0.10) Wiberg bond orders for each atom
          total WBO             WBO to atom ...

molecular dipole:
                 x           y           z       tot (Debye)
 q only:        0.157      -0.035      -0.001
   full:        0.345       0.014       0.005       0.877

 projected vibrational frequencies (cm-1)
eigval :       -0.00    -0.00    -0.00     0.00     0.00     0.00
eigval :      301.45   360.26   546.23   567.11   923.48   945.95
eigval :     1097.37  1440.85  1618.93

   temp. (K)  partition function   enthalpy   heat capacity  entropy
                                   cal/mol     cal/K/mol   cal/K/mol   J/K/mol
  10.00  VIB   1.00                    0.000      0.000     -0.002
         ROT   172.                   29.809      2.981     13.206
         INT   172.                   29.809      2.981     13.204
         TR   0.290E+25               49.681      4.968     21.419
         TOT                          79.4904     7.9490    34.6232   144.8635

       T/K    H(0)-H(T)+PV         H(T)/Eh          T*S/Eh         G(T)/Eh
   ------------------------------------------------------------------------
    298.15    0.504559E-02    0.228190E-01    0.311331E-01   -0.831411E-02
    120.00    0.158685E-02    0.193603E-01    0.104810E-01    0.887929E-02
    100.00    0.129593E-02    0.190694E-01    0.846927E-02    0.106001E-01
     80.00    0.102226E-02    0.187957E-01    0.653145E-02    0.122643E-01
     60.00    0.761352E-03    0.185348E-01    0.467364E-02    0.138611E-01
     40.00    0.506735E-03    0.182802E-01    0.290940E-02    0.153708E-01
     20.00    0.253352E-03    0.180268E-01    0.127910E-02    0.167477E-01
     10.00    0.126676E-03    0.179001E-01    0.551756E-03    0.173484E-01 (used)
   ------------------------------------------------------------------------

         :::::::::::::::::::::::::::::::::::::::::::::::::::::
         ::                  THERMODYNAMIC                  ::
         :::::::::::::::::::::::::::::::::::::::::::::::::::::
         :: total free energy         -11.021596811803 Eh   ::
         ::.................................................::
         :: total energy              -11.038945170661 Eh   ::
         :: zero point energy           0.017773438927 Eh   ::
         :: G(RRHO) w/o ZPVE           -0.000425080069 Eh   ::
         :: G(RRHO) contrib.            0.017348358858 Eh   ::
         :::::::::::::::::::::::::::::::::::::::::::::::::::::

           -------------------------------------------------
          | TOTAL ENERGY              -11.038945170661 Eh   |
          | TOTAL ENTHALPY            -11.021045055719 Eh   |
          | TOTAL FREE ENERGY         -11.021596811803 Eh   |
          | GRADIENT NORM               0.000458464171 Eh/Î± |
          | HOMO-LUMO GAP               2.770385159851 eV   |
           -------------------------------------------------

 * finished run on 2020/05/12 at 11:44:11.724
