   * xtb version 6.2.2 (9d81278992624c895f80dd42a50cac0aa55982e2) compiled by '@Darwin' on 04/03/2020
          program call               : xtb --input C4N1_11_S_3.input C4N1_11_S_3.xyz --ohess --molden --namespace C4N1_11_S_3 output.out
          number of atoms            :                     5
          number of electrons        :                    21
          charge                     :                     0
          spin                       :                   1.5

   ID    Z sym.   atoms
    1    6 C      1, 2, 4, 5
    2    7 N      3

          :  Hamiltonian                  GFN2-xTB          :
 * total energy  :   -10.8281014 Eh     change       -0.9463861E-09 Eh
 * total energy  :   -10.8702639 Eh     change       -0.4216250E-01 Eh
 * total energy  :   -10.8855939 Eh     change       -0.1533001E-01 Eh
 * total energy  :   -10.9005411 Eh     change       -0.1494718E-01 Eh
 * total energy  :   -10.9040900 Eh     change       -0.3548909E-02 Eh
 * total energy  :   -10.9054648 Eh     change       -0.1374768E-02 Eh
 * total energy  :   -10.9060609 Eh     change       -0.5961054E-03 Eh
 * total energy  :   -10.9291759 Eh     change       -0.2311508E-01 Eh
 * total energy  :   -10.9674303 Eh     change       -0.3825438E-01 Eh
 * total energy  :   -10.9798265 Eh     change       -0.1239620E-01 Eh
 * total energy  :   -10.9978539 Eh     change       -0.1802743E-01 Eh
 * total energy  :   -11.0010997 Eh     change       -0.3245756E-02 Eh
 * total energy  :   -11.0026560 Eh     change       -0.1556308E-02 Eh
 * total energy  :   -11.0030410 Eh     change       -0.3850166E-03 Eh
 * total energy  :   -11.0034570 Eh     change       -0.4160302E-03 Eh
 * total energy  :   -11.0034903 Eh     change       -0.3323863E-04 Eh
 * total energy  :   -11.0035023 Eh     change       -0.1206287E-04 Eh
 * total energy  :   -11.0035024 Eh     change       -0.3397800E-07 Eh
   *** GEOMETRY OPTIMIZATION CONVERGED AFTER 18 ITERATIONS ***

 final structure:
================
5
 xtb: 6.2.2 (9d81278992624c895f80dd42a50cac0aa55982e2)
C        -1.32552105222256   -0.63459070760990   -0.00510828433750
C         0.01643403909109   -0.00039028961479    0.01744537866845
N         1.24563308976133   -0.02623266054851    0.64072158630101
C        -1.30114351584601    0.68319752601972    0.00145336910210
C         1.36459743921615   -0.02198486824653   -0.65451104973406

          :  Hamiltonian                  GFN2-xTB          :
         :: gradient norm              0.000548380922 Eh/a0 ::
         :: HOMO-LUMO gap              2.737764303845 eV    ::
         :: SCC energy               -11.162002545740 Eh    ::
         :: -> dispersion             -0.002760769571 Eh    ::
         :: repulsion energy           0.158500104361 Eh    ::

    * Orbital Energies and Occupations

         #    Occupation            Energy/Eh            Energy/eV
      -------------------------------------------------------------
         1        2.0000           -0.7483163             -20.3627
         2        2.0000           -0.7270232             -19.7833
         3        2.0000           -0.6150244             -16.7357
         4        2.0000           -0.6047097             -16.4550
         5        2.0000           -0.5996551             -16.3174
         6        2.0000           -0.5402311             -14.7004
         7        2.0000           -0.5272628             -14.3476
         8        2.0000           -0.5162857             -14.0488
         9        1.9998           -0.4470806             -12.1657
        10        1.0002           -0.4305806             -11.7167
        11        1.0000           -0.4133848             -11.2488
        12        1.0000           -0.4093912             -11.1401 (HOMO)
        13                         -0.3087807              -8.4024 (LUMO)
        14                         -0.2880900              -7.8393
        15                         -0.0812949              -2.2121
        16                         -0.0640881              -1.7439
        17                         -0.0186789              -0.5083
        18                          0.3437620               9.3542
        19                          0.3864266              10.5152
        20                          0.4965079              13.5107
      -------------------------------------------------------------
                  HL-Gap            0.1006104 Eh            2.7377 eV

     #   Z        covCN         q      C6AA      Î±(0)
     1   6 C      1.959    -0.019    31.572     9.074
     2   6 C      3.842     0.208    17.310     5.919
     3   7 N      1.820    -0.108    24.130     7.278
     4   6 C      1.959    -0.019    31.572     9.074
     5   6 C      1.887    -0.062    32.802     9.250

Wiberg/Mayer (AO) data.
largest (>0.10) Wiberg bond orders for each atom
          total WBO             WBO to atom ...

molecular dipole:
                 x           y           z       tot (Debye)
 q only:       -0.316       0.006      -0.048
   full:       -0.331       0.005       0.139       0.913

 projected vibrational frequencies (cm-1)
eigval :       -0.00    -0.00     0.00     0.00     0.00     0.00
eigval :      281.65   324.08   366.12   369.85   736.99   743.02
eigval :     1368.14  1618.43  1764.56

   temp. (K)  partition function   enthalpy   heat capacity  entropy
                                   cal/mol     cal/K/mol   cal/K/mol   J/K/mol
  10.00  VIB   1.00                    0.000      0.000     -0.004
         ROT   208.                   29.809      2.981     13.590
         INT   208.                   29.809      2.981     13.586
         TR   0.290E+25               49.681      4.968     21.419
         TOT                          79.4904     7.9490    35.0051   146.4614

       T/K    H(0)-H(T)+PV         H(T)/Eh          T*S/Eh         G(T)/Eh
   ------------------------------------------------------------------------
    298.15    0.550332E-02    0.227555E-01    0.320875E-01   -0.933201E-02
    120.00    0.163857E-02    0.188908E-01    0.106202E-01    0.827056E-02
    100.00    0.132061E-02    0.185728E-01    0.856076E-02    0.100121E-01
     80.00    0.103042E-02    0.182826E-01    0.659004E-02    0.116926E-01
     60.00    0.762671E-03    0.180149E-01    0.471184E-02    0.133030E-01
     40.00    0.506774E-03    0.177590E-01    0.293387E-02    0.148251E-01
     20.00    0.253352E-03    0.175055E-01    0.129129E-02    0.162143E-01
     10.00    0.126676E-03    0.173789E-01    0.557842E-03    0.168210E-01 (used)
   ------------------------------------------------------------------------

         :::::::::::::::::::::::::::::::::::::::::::::::::::::
         ::                  THERMODYNAMIC                  ::
         :::::::::::::::::::::::::::::::::::::::::::::::::::::
         :: total free energy         -10.986681356591 Eh   ::
         ::.................................................::
         :: total energy              -11.003502385817 Eh   ::
         :: zero point energy           0.017252195412 Eh   ::
         :: G(RRHO) w/o ZPVE           -0.000431166186 Eh   ::
         :: G(RRHO) contrib.            0.016821029226 Eh   ::
         :::::::::::::::::::::::::::::::::::::::::::::::::::::

           -------------------------------------------------
          | TOTAL ENERGY              -11.003502385817 Eh   |
          | TOTAL ENTHALPY            -10.986123514389 Eh   |
          | TOTAL FREE ENERGY         -10.986681356591 Eh   |
          | GRADIENT NORM               0.000548252451 Eh/Î± |
          | HOMO-LUMO GAP               2.737748775766 eV   |
           -------------------------------------------------

 * finished run on 2020/05/12 at 11:44:02.725
