   * xtb version 6.2.2 (9d81278992624c895f80dd42a50cac0aa55982e2) compiled by '@Darwin' on 04/03/2020
          program call               : xtb --input C5_7_S_2.input C5_7_S_2.xyz --ohess --molden --namespace C5_7_S_2 output.out
          number of atoms            :                     5
          number of electrons        :                    20
          charge                     :                     0
          spin                       :                   1.0

   ID    Z sym.   atoms
    1    6 C      1-5

          :  Hamiltonian                  GFN2-xTB          :
 * total energy  :   -10.1102935 Eh     change        0.3412559E-10 Eh
 * total energy  :   -10.1715507 Eh     change       -0.6125716E-01 Eh
 * total energy  :   -10.1773327 Eh     change       -0.5782052E-02 Eh
 * total energy  :   -10.1862451 Eh     change       -0.8912334E-02 Eh
 * total energy  :   -10.1882883 Eh     change       -0.2043275E-02 Eh
 * total energy  :   -10.1885220 Eh     change       -0.2337129E-03 Eh
 * total energy  :   -10.1885326 Eh     change       -0.1056140E-04 Eh
 * total energy  :   -10.1885338 Eh     change       -0.1195881E-05 Eh
   *** GEOMETRY OPTIMIZATION CONVERGED AFTER 8 ITERATIONS ***

 final structure:
================
5
 xtb: 6.2.2 (9d81278992624c895f80dd42a50cac0aa55982e2)
C        -0.92698978977155    0.51302899750796   -0.34745880801375
C         0.20657675375362    1.10095315547128    0.21541048794723
C         1.15378396366319    0.09783422999582   -0.00859282974877
C        -0.81969081555164   -0.66094736468247    0.36254666653491
C         0.38631988790638   -1.05086901829259   -0.22190551671961

          :  Hamiltonian                  GFN2-xTB          :
         :: gradient norm              0.000563861845 Eh/a0 ::
         :: HOMO-LUMO gap              1.062702141924 eV    ::
         :: SCC energy               -10.355267564389 Eh    ::
         :: -> dispersion             -0.002859338687 Eh    ::
         :: repulsion energy           0.166733738547 Eh    ::

    * Orbital Energies and Occupations

         #    Occupation            Energy/Eh            Energy/eV
      -------------------------------------------------------------
         1        2.0000           -0.7329552             -19.9447
         2        2.0000           -0.6511418             -17.7185
         3        2.0000           -0.6509980             -17.7146
         4        2.0000           -0.5744759             -15.6323
         5        2.0000           -0.5608440             -15.2613
         6        2.0000           -0.5483790             -14.9222
         7        2.0000           -0.4867393             -13.2449
         8        2.0000           -0.4559963             -12.4083
         9        2.0000           -0.4536507             -12.3445
        10        1.0000           -0.3866377             -10.5209
        11        1.0000           -0.3861783             -10.5084 (HOMO)
        12                         -0.3471250              -9.4458 (LUMO)
        13                         -0.3432114              -9.3393
        14                         -0.2877251              -7.8294
        15                         -0.2295027              -6.2451
        16                          0.2092274               5.6934
        17                          0.2129001               5.7933
        18                          0.2762297               7.5166
        19                          0.4368610              11.8876
        20                          0.4388694              11.9422
      -------------------------------------------------------------
                  HL-Gap            0.0390532 Eh            1.0627 eV

     #   Z        covCN         q      C6AA      Î±(0)
     1   6 C      2.567     0.007    27.901     8.635
     2   6 C      2.498    -0.004    28.304     8.689
     3   6 C      2.386    -0.005    28.951     8.763
     4   6 C      2.574     0.007    27.888     8.634
     5   6 C      2.494    -0.005    28.322     8.692

Wiberg/Mayer (AO) data.
largest (>0.10) Wiberg bond orders for each atom
          total WBO             WBO to atom ...

molecular dipole:
                 x           y           z       tot (Debye)
 q only:       -0.040      -0.003       0.001
   full:       -0.045      -0.002       0.001       0.115

 projected vibrational frequencies (cm-1)
eigval :       -0.00    -0.00    -0.00     0.00     0.00     0.00
eigval :     -319.03   150.83   429.49   603.67  1008.18  1056.59
eigval :     1195.10  1207.34  1307.41

   temp. (K)  partition function   enthalpy   heat capacity  entropy
                                   cal/mol     cal/K/mol   cal/K/mol   J/K/mol
  10.00  VIB   1.00                    0.000      0.000     -0.012
         ROT   81.6                   29.809      2.981     11.728
         INT   81.6                   29.809      2.981     11.716
         TR   0.277E+25               49.681      4.968     21.322
         TOT                          79.4904     7.9490    33.0384   138.2327

       T/K    H(0)-H(T)+PV         H(T)/Eh          T*S/Eh         G(T)/Eh
   ------------------------------------------------------------------------
    298.15    0.496796E-02    0.208208E-01    0.305347E-01   -0.971386E-02
    120.00    0.166830E-02    0.175212E-01    0.103162E-01    0.720495E-02
    100.00    0.135987E-02    0.172127E-01    0.831607E-02    0.889667E-02
     80.00    0.106318E-02    0.169161E-01    0.638839E-02    0.105277E-01
     60.00    0.779099E-03    0.166320E-01    0.454644E-02    0.120855E-01
     40.00    0.509745E-03    0.163626E-01    0.281286E-02    0.135498E-01
     20.00    0.253365E-03    0.161062E-01    0.122884E-02    0.148774E-01
     10.00    0.126676E-03    0.159796E-01    0.526501E-03    0.154531E-01 (used)
   ------------------------------------------------------------------------

         :::::::::::::::::::::::::::::::::::::::::::::::::::::
         ::                  THERMODYNAMIC                  ::
         :::::::::::::::::::::::::::::::::::::::::::::::::::::
         :: total free energy         -10.173080738831 Eh   ::
         ::.................................................::
         :: total energy              -10.188533795284 Eh   ::
         :: zero point energy           0.015852880961 Eh   ::
         :: G(RRHO) w/o ZPVE           -0.000399824508 Eh   ::
         :: G(RRHO) contrib.            0.015453056453 Eh   ::
         :::::::::::::::::::::::::::::::::::::::::::::::::::::

           -------------------------------------------------
          | TOTAL ENERGY              -10.188533795284 Eh   |
          | TOTAL ENTHALPY            -10.172554238307 Eh   |
          | TOTAL FREE ENERGY         -10.173080738831 Eh   |
          | GRADIENT NORM               0.000564318864 Eh/Î± |
          | HOMO-LUMO GAP               1.062692694922 eV   |
           -------------------------------------------------

 * finished run on 2020/05/12 at 11:44:34.576
