   * xtb version 6.2.2 (9d81278992624c895f80dd42a50cac0aa55982e2) compiled by '@Darwin' on 04/03/2020
          program call               : xtb --input H2C2N1_10_S_1.input H2C2N1_10_S_1.xyz --ohess --molden --namespace H2C2N1_10_S_1 output.out
          number of atoms            :                     5
          number of electrons        :                    15
          charge                     :                     0
          spin                       :                   0.5

   ID    Z sym.   atoms
    1    6 C      1, 3
    2    7 N      2
    3    1 H      4, 5

          :  Hamiltonian                  GFN2-xTB          :
 * total energy  :    -7.9695223 Eh     change       -0.4209868E-09 Eh
 * total energy  :    -7.9970597 Eh     change       -0.2753739E-01 Eh
 * total energy  :    -8.0174662 Eh     change       -0.2040649E-01 Eh
 * total energy  :    -8.0192386 Eh     change       -0.1772385E-02 Eh
 * total energy  :    -8.0200921 Eh     change       -0.8534714E-03 Eh
 * total energy  :    -8.0201970 Eh     change       -0.1049344E-03 Eh
 * total energy  :    -8.0202076 Eh     change       -0.1057445E-04 Eh
 * total energy  :    -8.0202081 Eh     change       -0.4641653E-06 Eh
   *** GEOMETRY OPTIMIZATION CONVERGED AFTER 8 ITERATIONS ***

 final structure:
================
5
 xtb: 6.2.2 (9d81278992624c895f80dd42a50cac0aa55982e2)
C        -0.32770142588302   -0.00424776818718   -0.07735260708493
N         1.07397347337473    0.05818825780568    0.67887790534296
C         1.03039359776879   -0.06907504921230   -0.54885663947502
H        -0.89896988241564   -0.90916232423040    0.06906949211740
H        -0.87769576284486    0.92429588382420   -0.12173715090042

          :  Hamiltonian                  GFN2-xTB          :
         :: gradient norm              0.000138917998 Eh/a0 ::
         :: HOMO-LUMO gap              3.468692507798 eV    ::
         :: SCC energy                -8.138833500038 Eh    ::
         :: -> dispersion             -0.001459264215 Eh    ::
         :: repulsion energy           0.118625423923 Eh    ::

    * Orbital Energies and Occupations

         #    Occupation            Energy/Eh            Energy/eV
      -------------------------------------------------------------
         1        2.0000           -0.6993279             -19.0297
         2        2.0000           -0.6106297             -16.6161
         3        2.0000           -0.5539557             -15.0739
         4        2.0000           -0.5497316             -14.9590
         5        2.0000           -0.5225202             -14.2185
         6        2.0000           -0.4555185             -12.3953
         7        2.0000           -0.4320215             -11.7559
         8        1.0000           -0.3913323             -10.6487 (HOMO)
         9                         -0.2638602              -7.1800 (LUMO)
        10                         -0.1466073              -3.9894
        11                          0.0786929               2.1413
        12                          0.1894246               5.1545
        13                          0.2462596               6.7011
        14                          0.5892184              16.0334
      -------------------------------------------------------------
                  HL-Gap            0.1274721 Eh            3.4687 eV

     #   Z        covCN         q      C6AA      Î±(0)
     1   6 C      3.716     0.016    20.426     6.457
     2   7 N      1.796    -0.175    25.571     7.491
     3   6 C      1.890     0.043    30.020     8.849
     4   1 H      0.926     0.058     2.224     2.332
     5   1 H      0.926     0.058     2.224     2.332

Wiberg/Mayer (AO) data.
largest (>0.10) Wiberg bond orders for each atom
          total WBO             WBO to atom ...

molecular dipole:
                 x           y           z       tot (Debye)
 q only:       -0.475      -0.023      -0.277
   full:       -0.659      -0.033      -0.393       1.953

 projected vibrational frequencies (cm-1)
eigval :       -0.00    -0.00    -0.00    -0.00     0.00     0.00
Molecule has the following symmetry elements: (sigma)
It seems to be the Cs point group
eigval :      677.31   782.24   927.54  1007.18  1228.04  1405.84
eigval :     1856.59  3061.85  3080.70

   temp. (K)  partition function   enthalpy   heat capacity  entropy
                                   cal/mol     cal/K/mol   cal/K/mol   J/K/mol
  10.00  VIB   1.00                    0.000      0.000     -0.000
         ROT   40.8                   29.809      2.981     10.353
         INT   40.8                   29.809      2.981     10.353
         TR   0.151E+25               49.681      4.968     20.115
         TOT                          79.4904     7.9490    30.4671   127.4743

       T/K    H(0)-H(T)+PV         H(T)/Eh          T*S/Eh         G(T)/Eh
   ------------------------------------------------------------------------
    298.15    0.409046E-02    0.360469E-01    0.276885E-01    0.835839E-02
    120.00    0.152142E-02    0.334779E-01    0.960396E-02    0.238739E-01
    100.00    0.126700E-02    0.332235E-01    0.777145E-02    0.254520E-01
     80.00    0.101343E-02    0.329699E-01    0.599091E-02    0.269790E-01
     60.00    0.760056E-03    0.327165E-01    0.427458E-02    0.284420E-01
     40.00    0.506704E-03    0.324632E-01    0.264433E-02    0.298189E-01
     20.00    0.253352E-03    0.322098E-01    0.114661E-02    0.310632E-01
     10.00    0.126676E-03    0.320832E-01    0.485524E-03    0.315976E-01 (used)
   ------------------------------------------------------------------------

         :::::::::::::::::::::::::::::::::::::::::::::::::::::
         ::                  THERMODYNAMIC                  ::
         :::::::::::::::::::::::::::::::::::::::::::::::::::::
         :: total free energy          -7.988610421578 Eh   ::
         ::.................................................::
         :: total energy               -8.020208053066 Eh   ::
         :: zero point energy           0.031956479353 Eh   ::
         :: G(RRHO) w/o ZPVE           -0.000358847865 Eh   ::
         :: G(RRHO) contrib.            0.031597631488 Eh   ::
         :::::::::::::::::::::::::::::::::::::::::::::::::::::

           -------------------------------------------------
          | TOTAL ENERGY               -8.020208053066 Eh   |
          | TOTAL ENTHALPY             -7.988124897698 Eh   |
          | TOTAL FREE ENERGY          -7.988610421578 Eh   |
          | GRADIENT NORM               0.000138870481 Eh/Î± |
          | HOMO-LUMO GAP               3.468692906000 eV   |
           -------------------------------------------------

 * finished run on 2020/05/12 at 11:44:47.978
