   * xtb version 6.2.2 (9d81278992624c895f80dd42a50cac0aa55982e2) compiled by '@Darwin' on 04/03/2020
          program call               : xtb --input C4N1_34_S_3.input C4N1_34_S_3.xyz --ohess --molden --namespace C4N1_34_S_3 output.out
          number of atoms            :                     5
          number of electrons        :                    21
          charge                     :                     0
          spin                       :                   1.5

   ID    Z sym.   atoms
    1    6 C      1, 3-5
    2    7 N      2

          :  Hamiltonian                  GFN2-xTB          :
 * total energy  :   -10.9043745 Eh     change        0.1257852E-08 Eh
 * total energy  :   -10.9393879 Eh     change       -0.3501343E-01 Eh
 * total energy  :   -10.9620389 Eh     change       -0.2265097E-01 Eh
 * total energy  :   -10.9717055 Eh     change       -0.9666670E-02 Eh
 * total energy  :   -10.9756749 Eh     change       -0.3969350E-02 Eh
 * total energy  :   -10.9826320 Eh     change       -0.6957106E-02 Eh
 * total energy  :   -10.9851005 Eh     change       -0.2468525E-02 Eh
 * total energy  :   -10.9858039 Eh     change       -0.7034254E-03 Eh
 * total energy  :   -10.9920421 Eh     change       -0.6238136E-02 Eh
 * total energy  :   -10.9964535 Eh     change       -0.4411419E-02 Eh
 * total energy  :   -11.0007603 Eh     change       -0.5751391E-03 Eh
 * total energy  :   -11.0018995 Eh     change       -0.1139172E-02 Eh
 * total energy  :   -11.0021168 Eh     change       -0.2173450E-03 Eh
 * total energy  :   -11.0022305 Eh     change       -0.1136521E-03 Eh
 * total energy  :   -11.0022867 Eh     change       -0.5620931E-04 Eh
 * total energy  :   -11.0023393 Eh     change       -0.5260962E-04 Eh
 * total energy  :   -11.0023744 Eh     change       -0.3511612E-04 Eh
 * total energy  :   -11.0023889 Eh     change       -0.1448702E-04 Eh
 * total energy  :   -11.0023918 Eh     change       -0.2912730E-05 Eh
   *** GEOMETRY OPTIMIZATION CONVERGED AFTER 20 ITERATIONS ***

 final structure:
================
5
 xtb: 6.2.2 (9d81278992624c895f80dd42a50cac0aa55982e2)
C        -1.50087352301307    0.02725963651923    0.06184552864482
N        -0.50057456051392    0.24487427686840    0.86175421923306
C         0.63491400645634   -0.01560889375068   -0.03833503916625
C        -0.53638075019224   -0.25128145793419   -0.90155352052587
C         1.90291482726289   -0.00524256170276    0.01628981181424

          :  Hamiltonian                  GFN2-xTB          :
         :: gradient norm              0.000399623055 Eh/a0 ::
         :: HOMO-LUMO gap              1.924139032846 eV    ::
         :: SCC energy               -11.172302041074 Eh    ::
         :: -> dispersion             -0.002903348115 Eh    ::
         :: repulsion energy           0.169910203944 Eh    ::

    * Orbital Energies and Occupations

         #    Occupation            Energy/Eh            Energy/eV
      -------------------------------------------------------------
         1        2.0000           -0.7522449             -20.4696
         2        2.0000           -0.6852517             -18.6466
         3        2.0000           -0.6413965             -17.4533
         4        2.0000           -0.6269544             -17.0603
         5        2.0000           -0.5783452             -15.7376
         6        2.0000           -0.5712226             -15.5438
         7        2.0000           -0.5098662             -13.8742
         8        2.0000           -0.4703600             -12.7991
         9        2.0000           -0.4663386             -12.6897
        10        1.0000           -0.4238056             -11.5323
        11        1.0000           -0.4124084             -11.2222
        12        1.0000           -0.4098046             -11.1514 (HOMO)
        13                         -0.3390938              -9.2272 (LUMO)
        14                         -0.3038000              -8.2668
        15                         -0.1801603              -4.9024
        16                         -0.0109087              -0.2968
        17                          0.1086840               2.9574
        18                          0.1903504               5.1797
        19                          0.4226895              11.5020
        20                          0.8327351              22.6599
      -------------------------------------------------------------
                  HL-Gap            0.0707108 Eh            1.9241 eV

     #   Z        covCN         q      C6AA      Î±(0)
     1   6 C      2.117     0.042    29.766     8.817
     2   7 N      2.485    -0.068    22.616     7.062
     3   6 C      3.092     0.132    25.019     8.198
     4   6 C      2.627    -0.005    28.126     8.675
     5   6 C      0.982    -0.101    39.140    10.508

Wiberg/Mayer (AO) data.
largest (>0.10) Wiberg bond orders for each atom
          total WBO             WBO to atom ...

molecular dipole:
                 x           y           z       tot (Debye)
 q only:       -0.256      -0.030      -0.111
   full:       -0.424      -0.018      -0.070       1.093

 projected vibrational frequencies (cm-1)
eigval :       -0.00    -0.00    -0.00    -0.00     0.00     0.00
eigval :      260.05   347.17   427.81   433.86   511.39   904.93
eigval :     1077.91  1482.12  1763.96

   temp. (K)  partition function   enthalpy   heat capacity  entropy
                                   cal/mol     cal/K/mol   cal/K/mol   J/K/mol
  10.00  VIB   1.00                    0.000      0.000     -0.004
         ROT   203.                   29.809      2.981     13.537
         INT   203.                   29.809      2.981     13.533
         TR   0.290E+25               49.681      4.968     21.419
         TOT                          79.4904     7.9490    34.9523   146.2404

       T/K    H(0)-H(T)+PV         H(T)/Eh          T*S/Eh         G(T)/Eh
   ------------------------------------------------------------------------
    298.15    0.547790E-02    0.219016E-01    0.319955E-01   -0.100938E-01
    120.00    0.162771E-02    0.180514E-01    0.105971E-01    0.745434E-02
    100.00    0.131583E-02    0.177395E-01    0.854702E-02    0.919253E-02
     80.00    0.102955E-02    0.174533E-01    0.658251E-02    0.108708E-01
     60.00    0.762903E-03    0.171866E-01    0.470708E-02    0.124795E-01
     40.00    0.506813E-03    0.169305E-01    0.293055E-02    0.140000E-01
     20.00    0.253352E-03    0.166771E-01    0.128961E-02    0.153875E-01
     10.00    0.126676E-03    0.165504E-01    0.557000E-03    0.159934E-01 (used)
   ------------------------------------------------------------------------

         :::::::::::::::::::::::::::::::::::::::::::::::::::::
         ::                  THERMODYNAMIC                  ::
         :::::::::::::::::::::::::::::::::::::::::::::::::::::
         :: total free energy         -10.986398426697 Eh   ::
         ::.................................................::
         :: total energy              -11.002391824373 Eh   ::
         :: zero point energy           0.016423721904 Eh   ::
         :: G(RRHO) w/o ZPVE           -0.000430324228 Eh   ::
         :: G(RRHO) contrib.            0.015993397676 Eh   ::
         :::::::::::::::::::::::::::::::::::::::::::::::::::::

           -------------------------------------------------
          | TOTAL ENERGY              -11.002391824373 Eh   |
          | TOTAL ENTHALPY            -10.985841426453 Eh   |
          | TOTAL FREE ENERGY         -10.986398426697 Eh   |
          | GRADIENT NORM               0.000399384207 Eh/Î± |
          | HOMO-LUMO GAP               1.924137755220 eV   |
           -------------------------------------------------

 * finished run on 2020/05/12 at 11:44:13.623
