 Gaussian 16, Revision B.01,

 --------------------------------------------------------
 #P M062X/cc-pvtz nosymm opt(noeigentest) optcyc=120 freq
 --------------------------------------------------------

 -----
 Title
 -----
 Symbolic Z-matrix:
 Charge =  0 Multiplicity = 2

 SCF Done:  E(UM062X) =  -190.808608812     A.U. after   32 cycles
 SCF Done:  E(UM062X) =  -190.823819187     A.U. after   60 cycles
 SCF Done:  E(UM062X) =  -190.826672402     A.U. after   25 cycles
 SCF Done:  E(UM062X) =  -190.826854285     A.U. after   16 cycles
 SCF Done:  E(UM062X) =  -190.826860367     A.U. after   16 cycles
 Optimization completed.
    -- Stationary point found.
 Normal termination of Gaussian 16 at Mon Sep 28 17:10:22 2020.

 -------------------------------------------------------------------
 #P Geom=AllCheck Guess=TCheck SCRF=Check GenChk UM062X/CC-pVTZ Freq
 -------------------------------------------------------------------

 Structure from the checkpoint file:  "input.chk"
 -----
 Title
 -----
 Charge =  0 Multiplicity = 2

 SCF Done:  E(UM062X) =  -190.826860367     A.U. after    1 cycles

 Alpha  occ. eigenvalues --  -10.64014 -10.61266 -10.61246 -10.60514 -10.57219
 Alpha  occ. eigenvalues --   -0.95913  -0.90039  -0.81563  -0.71704  -0.63735
 Alpha  occ. eigenvalues --   -0.48767  -0.47444  -0.39744  -0.38245  -0.37551
 Alpha  occ. eigenvalues --   -0.27161
 Alpha virt. eigenvalues --   -0.13232   0.02614   0.04291   0.06438   0.15943
 Alpha virt. eigenvalues --    0.17021   0.19209   0.20207   0.23549   0.25320
 Alpha virt. eigenvalues --    0.28833   0.29094   0.29871   0.32975   0.33206

  Beta  occ. eigenvalues --  -10.63621 -10.61020 -10.60858 -10.60630 -10.57371
  Beta  occ. eigenvalues --   -0.95051  -0.89296  -0.79758  -0.70800  -0.63189
  Beta  occ. eigenvalues --   -0.46851  -0.46117  -0.37192  -0.36485  -0.36279
  Beta virt. eigenvalues --   -0.11414  -0.09978   0.04713   0.05537   0.06306
  Beta virt. eigenvalues --    0.15356   0.16757   0.20368   0.20955   0.23899
  Beta virt. eigenvalues --    0.25664   0.29006   0.29262   0.29913   0.32887

 Mulliken charges and spin densities:
               1          2
     1  C   -0.142621  -0.256831
     2  C    0.509178   0.551643
     3  C    0.219519  -0.233377
     4  C   -0.620189   0.365295
     5  H    0.141781  -0.003103
     6  C   -0.107668   0.576372
 Sum of Mulliken charges =  -0.00000   1.00000

 Dipole moment (field-independent basis, Debye):
    X=              0.0000    Y=             -0.0000    Z=              4.8069  Tot=              4.8069
 Quadrupole moment (field-independent basis, Debye-Ang):
   XX=            -28.1222   YY=            -29.8651   ZZ=            -15.7120
   XY=              0.1192   XZ=              0.0000   YZ=              0.0000

  Exact polarizability:  28.868  -0.050  29.598   0.000  -0.000 135.994
 Approx polarizability:  35.532   0.041  34.927  -0.000  -0.000 209.444

                      1                      2                      3
                      A                      A                      A
 Frequencies --    130.1005               130.3893               285.1952
 Red. masses --      6.8796                 6.8716                 6.1682
 Frc consts  --      0.0686                 0.0688                 0.2956
 IR Inten    --      0.0675                 1.5789                 8.1995

                      4                      5                      6
                      A                      A                      A
 Frequencies --    369.9427               433.1381               549.5428
 Red. masses --      9.7438                 9.1159                 1.2271
 Frc consts  --      0.7857                 1.0076                 0.2183
 IR Inten    --      5.4190                 0.0249                57.8955

                      7                      8                      9
                      A                      A                      A
 Frequencies --    594.3618               765.4623               794.4305
 Red. masses --      9.2078                 9.2172                 1.3222
 Frc consts  --      1.9165                 3.1820                 0.4916
 IR Inten    --      5.7298                 9.3795                25.0128

                     10                     11                     12
                      A                      A                      A
 Frequencies --   1446.8772              1909.6529              2110.6736
 Red. masses --     10.3076                11.9799                 6.6734
 Frc consts  --     12.7137                25.7401                17.5163
 IR Inten    --    123.8428               643.8333                 1.3089

                     13
                      A
 Frequencies --   3469.3549
 Red. masses --      1.1472
 Frc consts  --      8.1352
 IR Inten    --    121.9633

 - Thermochemistry -
 -------------------
 Temperature   298.150 Kelvin.  Pressure   1.00000 Atm.
 Atom     1 has atomic number  6 and mass  12.00000

 Molecular mass:    61.00783 amu.
 Principal axes and moments of inertia in atomic units:
                           1         2         3
     Eigenvalues --     0.00000 750.55390 750.55390
           X           -0.00000   0.92338   0.38388
           Y           -0.00000  -0.38388   0.92338
           Z            1.00000   0.00000   0.00000
 This molecule is a prolate symmetric top.
 Rotational symmetry number  1.
 Warning -- assumption of classical behavior for rotation
           may cause significant error
 Rotational temperature (Kelvin)      0.11540
 Rotational constant (GHZ):           2.404546
 Zero-point vibrational energy      77692.2 (Joules/Mol)
                                   18.56888 (Kcal/Mol)
 Warning -- explicit consideration of   7 degrees of freedom as
           vibrations may cause significant error
 Vibrational temperatures:    187.19   187.60   410.33   532.27   623.19
          (Kelvin)            790.67   855.15  1101.33  1143.01  2081.73
                             2747.56  3036.79  4991.63

 Zero-point correction=                           0.029591 (Hartree/Particle)
 Thermal correction to Energy=                    0.034895
 Thermal correction to Enthalpy=                  0.035839
 Thermal correction to Gibbs Free Energy=         0.003526
 Sum of electronic and zero-point Energies=           -190.797269
 Sum of electronic and thermal Energies=              -190.791965
 Sum of electronic and thermal Enthalpies=            -190.791021
 Sum of electronic and thermal Free Energies=         -190.823335

                     E (Thermal)             CV                S
                      KCal/Mol        Cal/Mol-Kelvin    Cal/Mol-Kelvin
 Total                   21.897             17.116             68.010
 Electronic               0.000              0.000              1.377
 Translational            0.889              2.981             38.245
 Rotational               0.592              1.987             17.601
 Vibrational             20.416             12.148             10.787
 Vibration     1          0.612              1.923              2.945
 Vibration     2          0.612              1.923              2.940
 Vibration     3          0.683              1.701              1.502
 Vibration     4          0.742              1.534              1.080
 Vibration     5          0.794              1.398              0.848
 Vibration     6          0.905              1.141              0.545
 Vibration     7          0.952              1.044              0.459

 Optimization completed.
    -- Stationary point found.
 Normal termination of Gaussian 16 at Mon Sep 28 17:12:17 2020.
 Gaussian 16:  ES64L-G16RevB.01 20-Dec-2017

 -----------------------------------------------
 #P CCSD(T)/aug-cc-pvtz geom=allcheck guess=read
 -----------------------------------------------

 Structure from the checkpoint file:  "input.chk"
 -----
 Title
 -----
 Charge =  0 Multiplicity = 2

                         Standard orientation:
 ---------------------------------------------------------------------
 Center     Atomic      Atomic             Coordinates (Angstroms)
 Number     Number       Type             X           Y           Z
 ---------------------------------------------------------------------
      1          6           0        0.000000    0.000000   -1.384774
      2          6           0        0.000000    0.000000   -0.127674
      3          6           0        0.000000    0.000000    1.206944
      4          6           0        0.000000    0.000000    2.420088
      5          1           0       -0.000000    0.000000    3.483847
      6          6           0       -0.000000    0.000000   -2.695226
 ---------------------------------------------------------------------

 SCF Done:  E(UHF) =  -189.724505472     A.U. after  129 cycles
 Error termination via Lnk1e in /applis/site/cecic/gaussian16/B.01/nehalem/g16/l801.exe at Mon Sep 28 17:17:52 2020.
