   * xtb version 6.2.2 (9d81278992624c895f80dd42a50cac0aa55982e2) compiled by '@Darwin' on 04/03/2020
          program call               : xtb --input C1N1O1_3_S_3.input C1N1O1_3_S_3.xyz --ohess --molden --namespace C1N1O1_3_S_3 output.out
          number of atoms            :                     3
          number of electrons        :                    15
          charge                     :                     0
          spin                       :                   1.5

   ID    Z sym.   atoms
    1    6 C      1
    2    8 O      2
    3    7 N      3

          :  Hamiltonian                  GFN2-xTB          :
 * total energy  :    -8.7483319 Eh     change        0.2328093E-10 Eh
 * total energy  :    -8.7499891 Eh     change       -0.1657171E-02 Eh
 * total energy  :    -8.7502921 Eh     change       -0.3029478E-03 Eh
 * total energy  :    -8.7503076 Eh     change       -0.1558520E-04 Eh
 * total energy  :    -8.7503120 Eh     change       -0.4357030E-05 Eh
   *** GEOMETRY OPTIMIZATION CONVERGED AFTER 5 ITERATIONS ***

 final structure:
================
3
 xtb: 6.2.2 (9d81278992624c895f80dd42a50cac0aa55982e2)
C         0.78921305011582   -0.13552458673293    0.03820651152453
O        -0.26897447765117    0.74023132466857   -0.01343093426907
N        -0.52023857246465   -0.60470673793564   -0.02477557725546

          :  Hamiltonian                  GFN2-xTB          :
         :: gradient norm              0.000445146302 Eh/a0 ::
         :: HOMO-LUMO gap              5.057179557504 eV    ::
         :: SCC energy                -8.781554430496 Eh    ::
         :: -> dispersion             -0.000753934570 Eh    ::
         :: repulsion energy           0.031242433484 Eh    ::

    * Orbital Energies and Occupations

         #    Occupation            Energy/Eh            Energy/eV
      -------------------------------------------------------------
         1        2.0000           -0.8129949             -22.1227
         2        2.0000           -0.7001405             -19.0518
         3        2.0000           -0.6723433             -18.2954
         4        2.0000           -0.6322679             -17.2049
         5        2.0000           -0.5620895             -15.2952
         6        2.0000           -0.5124634             -13.9448
         7        1.0000           -0.4645454             -12.6409
         8        1.0000           -0.4299570             -11.6997
         9        1.0000           -0.3382442              -9.2041 (HOMO)
        10                         -0.1523963              -4.1469 (LUMO)
        11                         -0.0104774              -0.2851
        12                          0.2084765               5.6729
      -------------------------------------------------------------
                  HL-Gap            0.1858479 Eh            5.0572 eV

     #   Z        covCN         q      C6AA      Î±(0)
Molecule has the following symmetry elements: (sigma)
It seems to be the Cs point group
     1   6 C      1.762     0.090    28.992     8.706
     2   8 O      1.770    -0.081    15.560     5.326
     3   7 N      1.827    -0.009    22.129     6.971

Wiberg/Mayer (AO) data.
largest (>0.10) Wiberg bond orders for each atom
          total WBO             WBO to atom ...

molecular dipole:
                 x           y           z       tot (Debye)
 q only:        0.185      -0.126       0.009
   full:        0.315       0.197       0.015       0.945

 projected vibrational frequencies (cm-1)
eigval :       -0.00    -0.00    -0.00     0.00     0.00     0.00
eigval :      940.02  1114.13  1521.25

   temp. (K)  partition function   enthalpy   heat capacity  entropy
                                   cal/mol     cal/K/mol   cal/K/mol   J/K/mol
  10.00  VIB   1.00                    0.000      0.000     -0.000
         ROT   31.7                   29.809      2.981      9.852
         INT   31.7                   29.809      2.981      9.852
         TR   0.162E+25               49.681      4.968     20.258
         TOT                          79.4904     7.9490    30.1098   125.9792

       T/K    H(0)-H(T)+PV         H(T)/Eh          T*S/Eh         G(T)/Eh
   ------------------------------------------------------------------------
    298.15    0.385131E-02    0.119967E-01    0.272143E-01   -0.152176E-01
    120.00    0.152017E-02    0.966554E-02    0.953421E-02    0.131325E-03
    100.00    0.126677E-02    0.941213E-02    0.771424E-02    0.169789E-02
     80.00    0.101341E-02    0.915877E-02    0.594532E-02    0.321345E-02
     60.00    0.760056E-03    0.890542E-02    0.424040E-02    0.466502E-02
     40.00    0.506704E-03    0.865207E-02    0.262155E-02    0.603052E-02
     20.00    0.253352E-03    0.839871E-02    0.113522E-02    0.726350E-02
     10.00    0.126676E-03    0.827204E-02    0.479829E-03    0.779221E-02 (used)
   ------------------------------------------------------------------------

         :::::::::::::::::::::::::::::::::::::::::::::::::::::
         ::                  THERMODYNAMIC                  ::
         :::::::::::::::::::::::::::::::::::::::::::::::::::::
         :: total free energy          -8.742519787925 Eh   ::
         ::.................................................::
         :: total energy               -8.750311996139 Eh   ::
         :: zero point energy           0.008145361681 Eh   ::
         :: G(RRHO) w/o ZPVE           -0.000353153467 Eh   ::
         :: G(RRHO) contrib.            0.007792208214 Eh   ::
         :::::::::::::::::::::::::::::::::::::::::::::::::::::

           -------------------------------------------------
          | TOTAL ENERGY               -8.750311996139 Eh   |
          | TOTAL ENTHALPY             -8.742039958443 Eh   |
          | TOTAL FREE ENERGY          -8.742519787925 Eh   |
          | GRADIENT NORM               0.000445102894 Eh/Î± |
          | HOMO-LUMO GAP               5.057178009877 eV   |
           -------------------------------------------------

 * finished run on 2020/05/12 at 11:44:41.578
