 Gaussian 16, Revision B.01,

 --------------------------------------------------------
 #P M062X/cc-pvtz nosymm opt(noeigentest) optcyc=120 freq
 --------------------------------------------------------

 -----
 Title
 -----
 Symbolic Z-matrix:
 Charge =  0 Multiplicity = 1

 SCF Done:  E(RM062X) =  -195.276674190     A.U. after   12 cycles
 SCF Done:  E(RM062X) =  -195.279511360     A.U. after   10 cycles
 SCF Done:  E(RM062X) =  -195.279582526     A.U. after    8 cycles
 SCF Done:  E(RM062X) =  -195.279584904     A.U. after    7 cycles
 Optimization completed.
    -- Stationary point found.
 Normal termination of Gaussian 16 at Sat Sep 26 06:41:58 2020.

 -------------------------------------------------------------------
 #P Geom=AllCheck Guess=TCheck SCRF=Check GenChk RM062X/CC-pVTZ Freq
 -------------------------------------------------------------------

 Structure from the checkpoint file:  "input.chk"
 -----
 Title
 -----
 Charge =  0 Multiplicity = 1

 SCF Done:  E(RM062X) =  -195.279584904     A.U. after    1 cycles

  Exact polarizability:  97.687   0.000  37.150  16.584   0.000  59.018
 Approx polarizability: 113.267   0.000  47.933  10.800   0.000  64.946

                      1                      2                      3
                      A                      A                      A
 Frequencies --    132.8203               199.5831               209.8383
 Red. masses --      1.9586                 2.6000                 1.3171
 Frc consts  --      0.0204                 0.0610                 0.0342
 IR Inten    --      1.1227                 1.8384                 0.1333

                      4                      5                      6
                      A                      A                      A
 Frequencies --    260.0091               457.4035               487.2978
 Red. masses --      1.9566                 2.3068                 3.6666
 Frc consts  --      0.0779                 0.2843                 0.5130
 IR Inten    --      2.3712                 0.4970                 0.0236

                      7                      8                      9
                      A                      A                      A
 Frequencies --    652.3760               860.9777               913.3008
 Red. masses --      1.2812                 1.6013                 1.4954
 Frc consts  --      0.3213                 0.6994                 0.7349
 IR Inten    --      2.8700                 6.4397                 5.9624

                     10                     11                     12
                      A                      A                      A
 Frequencies --    954.0832               992.7467               995.5621
 Red. masses --      1.3034                 1.4179                 1.1790
 Frc consts  --      0.6990                 0.8233                 0.6885
 IR Inten    --     34.6021                 9.7912                21.4663

                     13                     14                     15
                      A                      A                      A
 Frequencies --   1053.3969              1073.0427              1111.7662
 Red. masses --      1.1067                 1.5708                 2.5452
 Frc consts  --      0.7235                 1.0657                 1.8535
 IR Inten    --     39.4597                 1.2800                 0.0048

                     16                     17                     18
                      A                      A                      A
 Frequencies --   1213.7588              1294.5310              1326.0655
 Red. masses --      1.9108                 1.2864                 1.4175
 Frc consts  --      1.6585                 1.2701                 1.4686
 IR Inten    --      1.2544                 1.8510                 0.2462

                     19                     20                     21
                      A                      A                      A
 Frequencies --   1339.4981              1413.8234              1455.1522
 Red. masses --      1.2635                 1.2740                 1.2247
 Frc consts  --      1.3357                 1.5004                 1.5279
 IR Inten    --      2.6897                 3.1702                 5.5388

                     22                     23                     24
                      A                      A                      A
 Frequencies --   1482.1457              1494.9289              1702.3859
 Red. masses --      1.0434                 1.0592                 4.7874
 Frc consts  --      1.3505                 1.3946                 8.1746
 IR Inten    --      6.9743                 9.2541                 6.0149

                     25                     26                     27
                      A                      A                      A
 Frequencies --   1761.9444              3053.2131              3105.6133
 Red. masses --      5.8543                 1.0364                 1.0997
 Frc consts  --     10.7080                 5.6926                 6.2492
 IR Inten    --     18.2183                23.7691                12.3669

                     28                     29                     30
                      A                      A                      A
 Frequencies --   3137.7556              3152.1530              3158.8512
 Red. masses --      1.0984                 1.0908                 1.0889
 Frc consts  --      6.3719                 6.3855                 6.4014
 IR Inten    --      4.3482                 1.0029                13.1253

                     31                     32                     33
                      A                      A                      A
 Frequencies --   3164.5864              3170.8872              3258.1611
 Red. masses --      1.0688                 1.0838                 1.1158
 Frc consts  --      6.3064                 6.4204                 6.9788
 IR Inten    --     25.6992                 5.6909                 8.2528

 - Thermochemistry -
 -------------------
 Temperature   298.150 Kelvin.  Pressure   1.00000 Atm.
 Atom     1 has atomic number  1 and mass   1.00783

 Molecular mass:    68.06260 amu.
 Principal axes and moments of inertia in atomic units:
                           1         2         3
     Eigenvalues --    62.62228 828.66073 880.22711
           X            0.86124  -0.50820  -0.00000
           Y            0.00000   0.00000   1.00000
           Z            0.50820   0.86124  -0.00000
 This molecule is an asymmetric top.
 Rotational symmetry number  1.
 Rotational temperatures (Kelvin)      1.38312     0.10452     0.09840
 Rotational constants (GHZ):          28.81947     2.17790     2.05031
 Zero-point vibrational energy     299303.6 (Joules/Mol)
                                   71.53528 (Kcal/Mol)
 Warning -- explicit consideration of   6 degrees of freedom as
           vibrations may cause significant error
 Vibrational temperatures:    191.10   287.16   301.91   374.10   658.10
          (Kelvin)            701.11   938.62  1238.75  1314.04  1372.71
                             1428.34  1432.39  1515.60  1543.87  1599.58
                             1746.33  1862.54  1907.91  1927.24  2034.18
                             2093.64  2132.48  2150.87  2449.35  2535.04
                             4392.89  4468.28  4514.53  4535.25  4544.88
                             4553.13  4562.20  4687.77

 Zero-point correction=                           0.113999 (Hartree/Particle)
 Thermal correction to Energy=                    0.120098
 Thermal correction to Enthalpy=                  0.121042
 Thermal correction to Gibbs Free Energy=         0.085187
 Sum of electronic and zero-point Energies=           -195.165586
 Sum of electronic and thermal Energies=              -195.159487
 Sum of electronic and thermal Enthalpies=            -195.158543
 Sum of electronic and thermal Free Energies=         -195.194398

                     E (Thermal)             CV                S
                      KCal/Mol        Cal/Mol-Kelvin    Cal/Mol-Kelvin
 Total                   75.362             20.995             75.462
 Electronic               0.000              0.000              0.000
 Translational            0.889              2.981             38.571
 Rotational               0.889              2.981             25.327
 Vibrational             73.585             15.033             11.564
 Vibration     1          0.613              1.921              2.905
 Vibration     2          0.638              1.840              2.137
 Vibration     3          0.642              1.826              2.045
 Vibration     4          0.668              1.746              1.662
 Vibration     5          0.816              1.345              0.774
 Vibration     6          0.843              1.278              0.691

 Optimization completed.
    -- Stationary point found.
 Normal termination of Gaussian 16 at Sat Sep 26 06:47:49 2020.
 Gaussian 16:  ES64L-G16RevB.01 20-Dec-2017

 -----------------------------------------------
 #P CCSD(T)/aug-cc-pvtz geom=allcheck guess=read
 -----------------------------------------------

 Structure from the checkpoint file:  "input.chk"
 -----
 Title
 -----
 Charge =  0 Multiplicity = 1

                         Standard orientation:
 ---------------------------------------------------------------------
 Center     Atomic      Atomic             Coordinates (Angstroms)
 Number     Number       Type             X           Y           Z
 ---------------------------------------------------------------------
      1          1           0       -3.458918    0.256693    0.000000
      2          1           0       -2.536590   -1.344276    0.000000
      3          6           0       -2.510606   -0.261376   -0.000000
      4          1           0       -1.356887    1.482651   -0.000000
      5          6           0       -1.355477    0.396911   -0.000000
      6          1           0       -0.040453   -1.332610    0.000000
      7          6           0       -0.049125   -0.245742    0.000000
      8          1           0        1.074028    1.504693    0.000000
      9          6           0        1.104475    0.418397    0.000000
     10          1           0        3.031437    0.089875   -0.876346
     11          1           0        3.031437    0.089875    0.876346
     12          6           0        2.456479   -0.215670   -0.000000
     13          1           0        2.381467   -1.302015   -0.000000
 ---------------------------------------------------------------------

 SCF Done:  E(RHF) =  -194.031869063     A.U. after   11 cycles
 E2 =    -0.8360156709D+00 EUMP2 =    -0.19486788473374D+03
 CCSD(T)
 CCSD(T)= -0.19495212054D+03

 The electronic state is 1-A.
 Alpha  occ. eigenvalues --  -11.23393 -11.23380 -11.22629 -11.22310 -11.22039
 Alpha  occ. eigenvalues --   -1.09954  -1.03133  -0.93311  -0.79194  -0.75283
 Alpha  occ. eigenvalues --   -0.64837  -0.61815  -0.57075  -0.56907  -0.53806
 Alpha  occ. eigenvalues --   -0.51365  -0.48654  -0.43581  -0.31358
 Alpha virt. eigenvalues --    0.03043   0.03374   0.03581   0.04811   0.05212
 Alpha virt. eigenvalues --    0.05480   0.07166   0.07384   0.08843   0.09728
 Alpha virt. eigenvalues --    0.10351   0.11358   0.11735   0.11902   0.12764

 Mulliken charges:
               1
     1  H    0.459301
     2  H    0.269728
     3  C   -1.196485
     4  H    0.291942
     5  C   -0.106717
     6  H    0.287282
     7  C    0.067370
     8  H    0.373596
     9  C   -0.499023
    10  H    0.271249
    11  H    0.271249
    12  C   -0.782029
    13  H    0.292537
 Sum of Mulliken charges =  -0.00000

 Dipole moment (field-independent basis, Debye):
    X=              0.6553    Y=              0.0877    Z=             -0.0000  Tot=              0.6611
 Quadrupole moment (field-independent basis, Debye-Ang):
   XX=            -30.0948   YY=            -29.6874   ZZ=            -35.8269
   XY=              0.3828   XZ=             -0.0000   YZ=             -0.0000

 CSD=-194.9111836\CCSD(T)=-194.9521205\RMSD=8.347e-09\PG=C01 [X(C5H8)]\
 Normal termination of Gaussian 16 at Sat Sep 26 10:31:05 2020.
