   * xtb version 6.2.2 (9d81278992624c895f80dd42a50cac0aa55982e2) compiled by '@Darwin' on 04/03/2020
          program call               : xtb --input C5_17_S_2.input C5_17_S_2.xyz --ohess --molden --namespace C5_17_S_2 output.out
          number of atoms            :                     5
          number of electrons        :                    20
          charge                     :                     0
          spin                       :                   1.0

   ID    Z sym.   atoms
    1    6 C      1-5

          :  Hamiltonian                  GFN2-xTB          :
 * total energy  :   -10.1277289 Eh     change        0.2948683E-08 Eh
 * total energy  :   -10.1527054 Eh     change       -0.2497650E-01 Eh
 * total energy  :   -10.1619562 Eh     change       -0.9250735E-02 Eh
 * total energy  :   -10.1624506 Eh     change       -0.4944695E-03 Eh
 * total energy  :   -10.1624641 Eh     change       -0.1343942E-04 Eh
 * total energy  :   -10.1624716 Eh     change       -0.7481826E-05 Eh
 * total energy  :   -10.1626269 Eh     change       -0.1553772E-03 Eh
 * total energy  :   -10.1664625 Eh     change       -0.3835581E-02 Eh
 * total energy  :   -10.1778824 Eh     change       -0.1141991E-01 Eh
 * total energy  :   -10.1792712 Eh     change       -0.1388745E-02 Eh
 * total energy  :   -10.1798199 Eh     change       -0.5487638E-03 Eh
 * total energy  :   -10.1802680 Eh     change       -0.4480736E-03 Eh
 * total energy  :   -10.1805756 Eh     change       -0.3076064E-03 Eh
 * total energy  :   -10.1806418 Eh     change       -0.6618544E-04 Eh
 * total energy  :   -10.1806503 Eh     change       -0.8507440E-05 Eh
 * total energy  :   -10.1806505 Eh     change       -0.1760516E-06 Eh
   *** GEOMETRY OPTIMIZATION CONVERGED AFTER 16 ITERATIONS ***

 final structure:
================
5
 xtb: 6.2.2 (9d81278992624c895f80dd42a50cac0aa55982e2)
C        -0.74910556772148   -0.79472090027606    0.22152370209536
C        -0.13599603524446    0.37515260039756    0.90978380356386
C         0.77005166079469    0.73696388454144   -0.21555239349526
C        -0.59482724528054    0.38866473746443   -0.63763841793144
C         0.70987718745180   -0.70606132212736    0.06081230576748

          :  Hamiltonian                  GFN2-xTB          :
         :: gradient norm              0.000111503145 Eh/a0 ::
         :: HOMO-LUMO gap              2.323070896706 eV    ::
         :: SCC energy               -10.312375697367 Eh    ::
         :: -> dispersion             -0.002369534882 Eh    ::
         :: repulsion energy           0.131725206400 Eh    ::

    * Orbital Energies and Occupations

         #    Occupation            Energy/Eh            Energy/eV
      -------------------------------------------------------------
         1        2.0000           -0.7653571             -20.8264
         2        2.0000           -0.6588635             -17.9286
         3        2.0000           -0.6406843             -17.4339
         4        2.0000           -0.6189524             -16.8426
         5        2.0000           -0.5314402             -14.4612
         6        2.0000           -0.5107289             -13.8976
         7        2.0000           -0.4909866             -13.3604
         8        2.0000           -0.4703075             -12.7977
         9        1.9910           -0.4650586             -12.6549
        10        1.0091           -0.4561365             -12.4121
        11        1.0000           -0.4075904             -11.0911 (HOMO)
        12                         -0.3222190              -8.7680 (LUMO)
        13                         -0.2467044              -6.7132
        14                         -0.2076500              -5.6504
        15                         -0.0373585              -1.0166
        16                          0.0513006               1.3960
        17                          0.0598308               1.6281
        18                          0.1020289               2.7763
        19                          0.2112455               5.7483
        20                          0.3580986               9.7444
      -------------------------------------------------------------
                  HL-Gap            0.0853714 Eh            2.3231 eV

     #   Z        covCN         q      C6AA      Î±(0)
     1   6 C      3.075    -0.016    28.329     8.727
     2   6 C      3.877     0.084    19.146     6.221
     3   6 C      3.075    -0.016    28.329     8.727
     4   6 C      3.703    -0.026    21.192     6.582
     5   6 C      3.703    -0.026    21.192     6.582

Wiberg/Mayer (AO) data.
largest (>0.10) Wiberg bond orders for each atom
          total WBO             WBO to atom ...

molecular dipole:
                 x           y           z       tot (Debye)
 q only:       -0.028       0.077       0.172
   full:       -0.088       0.242       0.542       1.525

 projected vibrational frequencies (cm-1)
eigval :       -0.00    -0.00    -0.00     0.00     0.00     0.00
eigval :       76.50   323.18   615.49   794.53   908.64   938.33
eigval :     1020.81  1271.21  1407.78

   temp. (K)  partition function   enthalpy   heat capacity  entropy
                                   cal/mol     cal/K/mol   cal/K/mol   J/K/mol
  10.00  VIB   1.00                    0.004      0.004     -0.041
         ROT   63.9                   29.809      2.981     11.244
         INT   63.9                   29.813      2.985     11.203
         TR   0.277E+25               49.681      4.968     21.322
         TOT                          79.4940     7.9530    32.5254   136.0862

       T/K    H(0)-H(T)+PV         H(T)/Eh          T*S/Eh         G(T)/Eh
   ------------------------------------------------------------------------
    298.15    0.533379E-02    0.220931E-01    0.312206E-01   -0.912752E-02
    120.00    0.178551E-02    0.185448E-01    0.104710E-01    0.807380E-02
    100.00    0.145518E-02    0.182144E-01    0.842864E-02    0.978581E-02
     80.00    0.113569E-02    0.178950E-01    0.646131E-02    0.114337E-01
     60.00    0.826937E-03    0.175862E-01    0.458242E-02    0.130038E-01
     40.00    0.530479E-03    0.172897E-01    0.281629E-02    0.144735E-01
     20.00    0.254777E-03    0.170140E-01    0.121702E-02    0.157970E-01
     10.00    0.126682E-03    0.168860E-01    0.518325E-03    0.163676E-01 (used)
   ------------------------------------------------------------------------

         :::::::::::::::::::::::::::::::::::::::::::::::::::::
         ::                  THERMODYNAMIC                  ::
         :::::::::::::::::::::::::::::::::::::::::::::::::::::
         :: total free energy         -10.164282852176 Eh   ::
         ::.................................................::
         :: total energy              -10.180650477607 Eh   ::
         :: zero point energy           0.016759268605 Eh   ::
         :: G(RRHO) w/o ZPVE           -0.000391643173 Eh   ::
         :: G(RRHO) contrib.            0.016367625432 Eh   ::
         :::::::::::::::::::::::::::::::::::::::::::::::::::::

           -------------------------------------------------
          | TOTAL ENERGY              -10.180650477607 Eh   |
          | TOTAL ENTHALPY            -10.163764527205 Eh   |
          | TOTAL FREE ENERGY         -10.164282852176 Eh   |
          | GRADIENT NORM               0.000111371028 Eh/Î± |
          | HOMO-LUMO GAP               2.323072746132 eV   |
           -------------------------------------------------

 * finished run on 2020/05/12 at 11:44:39.190
