   * xtb version 6.2.2 (9d81278992624c895f80dd42a50cac0aa55982e2) compiled by '@Darwin' on 04/03/2020
          program call               : xtb --input H1C3N1_13_S_2.input H1C3N1_13_S_2.xyz --ohess --molden --namespace H1C3N1_13_S_2 output.out
          number of atoms            :                     5
          number of electrons        :                    18
          charge                     :                     0
          spin                       :                   1.0

   ID    Z sym.   atoms
    1    6 C      1-3
    2    7 N      4
    3    1 H      5

          :  Hamiltonian                  GFN2-xTB          :
 * total energy  :    -9.4164427 Eh     change       -0.1311262E-08 Eh
 * total energy  :    -9.4757733 Eh     change       -0.5933057E-01 Eh
 * total energy  :    -9.5004451 Eh     change       -0.2467183E-01 Eh
 * total energy  :    -9.5127094 Eh     change       -0.1226434E-01 Eh
 * total energy  :    -9.5171829 Eh     change       -0.4473445E-02 Eh
 * total energy  :    -9.5191373 Eh     change       -0.1954396E-02 Eh
 * total energy  :    -9.5209860 Eh     change       -0.1848724E-02 Eh
 * total energy  :    -9.5214077 Eh     change       -0.4217183E-03 Eh
 * total energy  :    -9.5215630 Eh     change       -0.1552977E-03 Eh
 * total energy  :    -9.5217725 Eh     change       -0.2094892E-03 Eh
 * total energy  :    -9.5218253 Eh     change       -0.5281257E-04 Eh
 * total energy  :    -9.5218360 Eh     change       -0.1069956E-04 Eh
 * total energy  :    -9.5218362 Eh     change       -0.2383061E-06 Eh
 * total energy  :    -9.5218380 Eh     change       -0.1740371E-05 Eh
   *** GEOMETRY OPTIMIZATION CONVERGED AFTER 14 ITERATIONS ***

 final structure:
================
5
 xtb: 6.2.2 (9d81278992624c895f80dd42a50cac0aa55982e2)
C         0.99633174772160   -0.33957007587238    0.41049967858004
C        -0.16386535978719    0.13153310961031    0.05589618607638
C        -1.32195124877492    0.96704844167266    0.30072263916980
N        -1.24395157417503    0.24885497157205   -0.80027540800815
H         1.73343643501554   -1.00786644698265    0.03315790418192

          :  Hamiltonian                  GFN2-xTB          :
         :: gradient norm              0.000336388275 Eh/a0 ::
         :: HOMO-LUMO gap              1.622194557981 eV    ::
         :: SCC energy                -9.673101518235 Eh    ::
         :: -> dispersion             -0.002104831602 Eh    ::
         :: repulsion energy           0.151263557651 Eh    ::

    * Orbital Energies and Occupations

         #    Occupation            Energy/Eh            Energy/eV
      -------------------------------------------------------------
         1        2.0000           -0.7205056             -19.6060
         2        2.0000           -0.6539180             -17.7940
         3        2.0000           -0.5822815             -15.8447
         4        2.0000           -0.5676886             -15.4476
         5        2.0000           -0.5524161             -15.0320
         6        2.0000           -0.5216712             -14.1954
         7        2.0000           -0.4538051             -12.3487
         8        1.7744           -0.4294249             -11.6852
         9        1.2256           -0.4270817             -11.6215
        10        1.0000           -0.3568956              -9.7116 (HOMO)
        11                         -0.2972807              -8.0894 (LUMO)
        12                         -0.2140453              -5.8245
        13                         -0.0407672              -1.1093
        14                          0.0749011               2.0382
        15                          0.2417700               6.5789
        16                          0.3712856              10.1032
        17                          0.8230475              22.3963
      -------------------------------------------------------------
                  HL-Gap            0.0596149 Eh            1.6222 eV

     #   Z        covCN         q      C6AA      Î±(0)
     1   6 C      1.908    -0.098    33.821     9.392
     2   6 C      2.869     0.152    24.692     8.146
     3   6 C      1.890    -0.047    32.386     9.191
     4   7 N      1.820    -0.108    24.127     7.278
     5   1 H      0.927     0.101     1.774     2.083

Wiberg/Mayer (AO) data.
largest (>0.10) Wiberg bond orders for each atom
          total WBO             WBO to atom ...

molecular dipole:
                 x           y           z       tot (Debye)
 q only:        0.472      -0.229       0.083
   full:        0.675      -0.457      -0.093       2.085

 projected vibrational frequencies (cm-1)
eigval :       -0.00    -0.00    -0.00     0.00     0.00     0.00
eigval :      329.89   351.39   518.63   606.52   672.42   862.83
eigval :     1283.56  1792.49  3187.15

   temp. (K)  partition function   enthalpy   heat capacity  entropy
                                   cal/mol     cal/K/mol   cal/K/mol   J/K/mol
  10.00  VIB   1.00                    0.000      0.000     -0.002
         ROT   107.                   29.809      2.981     12.268
         INT   107.                   29.809      2.981     12.266
         TR   0.217E+25               49.681      4.968     20.838
         TOT                          79.4904     7.9490    33.1040   138.5071

       T/K    H(0)-H(T)+PV         H(T)/Eh          T*S/Eh         G(T)/Eh
   ------------------------------------------------------------------------
    298.15    0.508756E-02    0.269691E-01    0.304525E-01   -0.348345E-02
    120.00    0.158125E-02    0.234628E-01    0.101825E-01    0.132802E-01
    100.00    0.129221E-02    0.231737E-01    0.822227E-02    0.149514E-01
     80.00    0.102057E-02    0.229021E-01    0.633565E-02    0.165664E-01
     60.00    0.760969E-03    0.226425E-01    0.452791E-02    0.181146E-01
     40.00    0.506720E-03    0.223882E-01    0.281252E-02    0.195757E-01
     20.00    0.253352E-03    0.221349E-01    0.123067E-02    0.209042E-01
     10.00    0.126676E-03    0.220082E-01    0.527546E-03    0.214806E-01 (used)
   ------------------------------------------------------------------------

         :::::::::::::::::::::::::::::::::::::::::::::::::::::
         ::                  THERMODYNAMIC                  ::
         :::::::::::::::::::::::::::::::::::::::::::::::::::::
         :: total free energy          -9.500357340019 Eh   ::
         ::.................................................::
         :: total energy               -9.521837975984 Eh   ::
         :: zero point energy           0.021881505684 Eh   ::
         :: G(RRHO) w/o ZPVE           -0.000400869719 Eh   ::
         :: G(RRHO) contrib.            0.021480635965 Eh   ::
         :::::::::::::::::::::::::::::::::::::::::::::::::::::

           -------------------------------------------------
          | TOTAL ENERGY               -9.521837975984 Eh   |
          | TOTAL ENTHALPY             -9.499829794285 Eh   |
          | TOTAL FREE ENERGY          -9.500357340019 Eh   |
          | GRADIENT NORM               0.000333161342 Eh/Î± |
          | HOMO-LUMO GAP               1.622205082682 eV   |
           -------------------------------------------------

 * finished run on 2020/05/12 at 11:44:55.604
