   * xtb version 6.2.2 (9d81278992624c895f80dd42a50cac0aa55982e2) compiled by '@Darwin' on 04/03/2020
          program call               : xtb --input C4N1_57_S_3.input C4N1_57_S_3.xyz --ohess --molden --namespace C4N1_57_S_3 output.out
          number of atoms            :                     5
          number of electrons        :                    21
          charge                     :                     0
          spin                       :                   1.5

   ID    Z sym.   atoms
    1    7 N      1
    2    6 C      2-5

          :  Hamiltonian                  GFN2-xTB          :
 * total energy  :   -10.7236530 Eh     change       -0.4703615E-09 Eh
 * total energy  :   -10.8813492 Eh     change       -0.1576963E+00 Eh
 * total energy  :   -10.9096609 Eh     change       -0.2831169E-01 Eh
 * total energy  :   -10.9336389 Eh     change       -0.2397800E-01 Eh
 * total energy  :   -10.9407258 Eh     change       -0.7086898E-02 Eh
 * total energy  :   -10.9709270 Eh     change       -0.3020114E-01 Eh
 * total energy  :   -10.9744042 Eh     change       -0.3477281E-02 Eh
 * total energy  :   -10.9774657 Eh     change       -0.3061482E-02 Eh
 * total energy  :   -10.9806354 Eh     change       -0.3169720E-02 Eh
 * total energy  :   -10.9810407 Eh     change       -0.4052261E-03 Eh
 * total energy  :   -10.9826034 Eh     change       -0.2930879E-04 Eh
 * total energy  :   -10.9826539 Eh     change       -0.5043516E-04 Eh
 * total energy  :   -10.9826683 Eh     change       -0.1442955E-04 Eh
 * total energy  :   -10.9827000 Eh     change       -0.3175394E-04 Eh
 * total energy  :   -10.9827086 Eh     change       -0.8606171E-05 Eh
 * total energy  :   -10.9827184 Eh     change       -0.9707181E-05 Eh
 * total energy  :   -10.9827237 Eh     change       -0.5328880E-05 Eh
 * total energy  :   -10.9827287 Eh     change       -0.5017048E-05 Eh
 * total energy  :   -10.9827303 Eh     change       -0.1576640E-05 Eh
   *** GEOMETRY OPTIMIZATION CONVERGED AFTER 30 ITERATIONS ***

 final structure:
================
5
 xtb: 6.2.2 (9d81278992624c895f80dd42a50cac0aa55982e2)
N        -0.91031049549765   -0.33018479638932   -0.32198242052603
C        -0.13185280194512    0.90043134593340   -0.04730720476791
C         0.36103588330248   -0.21494155499868   -0.96866090643106
C         1.00997394935212   -0.14179080388612    0.35750666608840
C        -0.32884553521183   -0.21351419065928    0.98044386563661

          :  Hamiltonian                  GFN2-xTB          :
         :: gradient norm              0.000168993992 Eh/a0 ::
         :: HOMO-LUMO gap              4.148074687911 eV    ::
         :: SCC energy               -11.091593601530 Eh    ::
         :: -> dispersion             -0.002597303259 Eh    ::
         :: repulsion energy           0.108863311134 Eh    ::

    * Orbital Energies and Occupations

         #    Occupation            Energy/Eh            Energy/eV
      -------------------------------------------------------------
         1        2.0000           -0.7836278             -21.3236
         2        2.0000           -0.6703323             -18.2407
         3        2.0000           -0.6679109             -18.1748
         4        2.0000           -0.6322946             -17.2056
         5        2.0000           -0.5635525             -15.3350
         6        2.0000           -0.5188189             -14.1178
         7        2.0000           -0.5150843             -14.0162
         8        2.0000           -0.4915340             -13.3753
         9        2.0000           -0.4833270             -13.1520
        10        1.0000           -0.4626676             -12.5898
        11        1.0000           -0.4082681             -11.1095
        12        1.0000           -0.3993488             -10.8668 (HOMO)
        13                         -0.2469098              -6.7188 (LUMO)
        14                         -0.1689770              -4.5981
        15                         -0.1429589              -3.8901
        16                          0.0080356               0.2187
        17                          0.0678200               1.8455
        18                          0.1032603               2.8099
        19                          0.1145783               3.1178
        20                          0.3313633               9.0169
      -------------------------------------------------------------
                  HL-Gap            0.1524389 Eh            4.1481 eV

     #   Z        covCN         q      C6AA      Î±(0)
     1   7 N      2.990    -0.079    22.763     7.086
     2   6 C      3.820     0.116    18.677     6.150
     3   6 C      3.214    -0.014    27.674     8.559
     4   6 C      3.189    -0.009    27.761     8.595
     5   6 C      3.214    -0.014    27.675     8.560

Wiberg/Mayer (AO) data.
largest (>0.10) Wiberg bond orders for each atom
          total WBO             WBO to atom ...

molecular dipole:
                 x           y           z       tot (Debye)
 q only:        0.088       0.260       0.031
   full:       -0.122       0.525      -0.044       1.374

 projected vibrational frequencies (cm-1)
eigval :       -0.00    -0.00    -0.00    -0.00     0.00     0.00
eigval :      265.25   413.85   549.50   889.59   998.00  1055.06
eigval :     1137.28  1160.12  1406.74

   temp. (K)  partition function   enthalpy   heat capacity  entropy
                                   cal/mol     cal/K/mol   cal/K/mol   J/K/mol
  10.00  VIB   1.00                    0.000      0.000     -0.003
         ROT   133.                   29.809      2.981     12.694
         INT   133.                   29.809      2.981     12.691
         TR   0.290E+25               49.681      4.968     21.419
         TOT                          79.4904     7.9490    34.1107   142.7192

       T/K    H(0)-H(T)+PV         H(T)/Eh          T*S/Eh         G(T)/Eh
   ------------------------------------------------------------------------
    298.15    0.489984E-02    0.228413E-01    0.306994E-01   -0.785808E-02
    120.00    0.158943E-02    0.195309E-01    0.103886E-01    0.914236E-02
    100.00    0.129980E-02    0.192413E-01    0.839338E-02    0.108479E-01
     80.00    0.102497E-02    0.189665E-01    0.646967E-02    0.124968E-01
     60.00    0.762246E-03    0.187037E-01    0.462575E-02    0.140780E-01
     40.00    0.506792E-03    0.184483E-01    0.287682E-02    0.155715E-01
     20.00    0.253352E-03    0.181948E-01    0.126277E-02    0.169321E-01
     10.00    0.126676E-03    0.180682E-01    0.543589E-03    0.175246E-01 (used)
   ------------------------------------------------------------------------

         :::::::::::::::::::::::::::::::::::::::::::::::::::::
         ::                  THERMODYNAMIC                  ::
         :::::::::::::::::::::::::::::::::::::::::::::::::::::
         :: total free energy         -10.965205696753 Eh   ::
         ::.................................................::
         :: total energy              -10.982730273390 Eh   ::
         :: zero point energy           0.017941489246 Eh   ::
         :: G(RRHO) w/o ZPVE           -0.000416912609 Eh   ::
         :: G(RRHO) contrib.            0.017524576637 Eh   ::
         :::::::::::::::::::::::::::::::::::::::::::::::::::::

           -------------------------------------------------
          | TOTAL ENERGY              -10.982730273390 Eh   |
          | TOTAL ENTHALPY            -10.964662108128 Eh   |
          | TOTAL FREE ENERGY         -10.965205696753 Eh   |
          | GRADIENT NORM               0.000168945930 Eh/Î± |
          | HOMO-LUMO GAP               4.148074708355 eV   |
           -------------------------------------------------

 * finished run on 2020/05/12 at 11:44:24.338
