   * xtb version 6.2.2 (9d81278992624c895f80dd42a50cac0aa55982e2) compiled by '@Darwin' on 04/03/2020
          program call               : xtb --input H1C3N1_20_S_2.input H1C3N1_20_S_2.xyz --ohess --molden --namespace H1C3N1_20_S_2 output.out
          number of atoms            :                     5
          number of electrons        :                    18
          charge                     :                     0
          spin                       :                   1.0

   ID    Z sym.   atoms
    1    7 N      1
    2    6 C      2-4
    3    1 H      5

          :  Hamiltonian                  GFN2-xTB          :
 * total energy  :    -9.4156622 Eh     change        0.6332534E-10 Eh
 * total energy  :    -9.4915880 Eh     change       -0.7592580E-01 Eh
 * total energy  :    -9.5137462 Eh     change       -0.2215816E-01 Eh
 * total energy  :    -9.5384863 Eh     change       -0.2474010E-01 Eh
 * total energy  :    -9.5431128 Eh     change       -0.4626502E-02 Eh
 * total energy  :    -9.5462923 Eh     change       -0.3179520E-02 Eh
 * total energy  :    -9.5445768 Eh     change        0.1715579E-02 Eh
 * total energy  :    -9.5469463 Eh     change       -0.2369539E-02 Eh
 * total energy  :    -9.5470043 Eh     change       -0.5796031E-04 Eh
 * total energy  :    -9.5470475 Eh     change       -0.4328883E-04 Eh
 * total energy  :    -9.5470869 Eh     change       -0.3939451E-04 Eh
 * total energy  :    -9.5471138 Eh     change       -0.2686688E-04 Eh
 * total energy  :    -9.5471220 Eh     change       -0.8173781E-05 Eh
 * total energy  :    -9.5471234 Eh     change       -0.1397407E-05 Eh
   *** GEOMETRY OPTIMIZATION CONVERGED AFTER 14 ITERATIONS ***

 final structure:
================
5
 xtb: 6.2.2 (9d81278992624c895f80dd42a50cac0aa55982e2)
N         1.12101422438232   -0.19917928251480    0.06445878465204
C        -0.09705639767546   -0.09861517769154    0.06346739191541
C        -1.38976321505086   -0.64097947614761    0.44886024063560
C        -1.41027836229126    0.49504509369634   -0.22663093599418
H         1.77608375063526    0.44372884265761   -0.35015648120887

          :  Hamiltonian                  GFN2-xTB          :
         :: gradient norm              0.000302714427 Eh/a0 ::
         :: HOMO-LUMO gap              3.156749107007 eV    ::
         :: SCC energy                -9.719872664941 Eh    ::
         :: -> dispersion             -0.002095234426 Eh    ::
         :: repulsion energy           0.172749292245 Eh    ::

    * Orbital Energies and Occupations

         #    Occupation            Energy/Eh            Energy/eV
      -------------------------------------------------------------
         1        2.0000           -0.6958311             -18.9345
         2        2.0000           -0.6683715             -18.1873
         3        2.0000           -0.5832520             -15.8711
         4        2.0000           -0.5539182             -15.0729
         5        2.0000           -0.5331665             -14.5082
         6        2.0000           -0.5124746             -13.9451
         7        2.0000           -0.4670243             -12.7084
         8        2.0000           -0.4382263             -11.9247
         9        1.0000           -0.3873115             -10.5393
        10        1.0000           -0.3610647              -9.8251 (HOMO)
        11                         -0.2450564              -6.6683 (LUMO)
        12                         -0.2201325              -5.9901
        13                         -0.0271114              -0.7377
        14                          0.0506274               1.3776
        15                          0.2115178               5.7557
        16                          0.5391097              14.6699
        17                          0.8101229              22.0446
      -------------------------------------------------------------
                  HL-Gap            0.1160083 Eh            3.1567 eV

     #   Z        covCN         q      C6AA      Î±(0)
     1   7 N      1.771    -0.253    27.399     7.751
     2   6 C      2.868     0.179    24.169     8.059
     3   6 C      1.960    -0.052    32.473     9.203
     4   6 C      1.959    -0.069    32.941     9.269
     5   1 H      0.860     0.195     1.132     1.667

Wiberg/Mayer (AO) data.
largest (>0.10) Wiberg bond orders for each atom
          total WBO             WBO to atom ...

molecular dipole:
                 x           y           z       tot (Debye)
 q only:        0.406       0.224      -0.153
   full:        0.587       0.397      -0.265       1.922

 projected vibrational frequencies (cm-1)
eigval :       -0.00     0.00     0.00     0.00     0.00     0.00
eigval :      365.68   415.11   521.55   814.23   909.01   941.54
eigval :     1639.43  2026.29  3413.01

   temp. (K)  partition function   enthalpy   heat capacity  entropy
                                   cal/mol     cal/K/mol   cal/K/mol   J/K/mol
  10.00  VIB   1.00                    0.000      0.000     -0.001
         ROT   105.                   29.809      2.981     12.236
         INT   105.                   29.809      2.981     12.234
         TR   0.217E+25               49.681      4.968     20.838
         TOT                          79.4904     7.9490    33.0721   138.3735

       T/K    H(0)-H(T)+PV         H(T)/Eh          T*S/Eh         G(T)/Eh
   ------------------------------------------------------------------------
    298.15    0.480071E-02    0.299650E-01    0.299915E-01   -0.264844E-04
    120.00    0.155921E-02    0.267235E-01    0.101482E-01    0.165753E-01
    100.00    0.128164E-02    0.264459E-01    0.820405E-02    0.182419E-01
     80.00    0.101702E-02    0.261813E-01    0.632728E-02    0.198540E-01
     60.00    0.760414E-03    0.259247E-01    0.452415E-02    0.214006E-01
     40.00    0.506708E-03    0.256710E-01    0.281044E-02    0.228606E-01
     20.00    0.253352E-03    0.254176E-01    0.122965E-02    0.241880E-01
     10.00    0.126676E-03    0.252910E-01    0.527037E-03    0.247639E-01 (used)
   ------------------------------------------------------------------------

         :::::::::::::::::::::::::::::::::::::::::::::::::::::
         ::                  THERMODYNAMIC                  ::
         :::::::::::::::::::::::::::::::::::::::::::::::::::::
         :: total free energy          -9.522359441104 Eh   ::
         ::.................................................::
         :: total energy               -9.547123373175 Eh   ::
         :: zero point energy           0.025164292855 Eh   ::
         :: G(RRHO) w/o ZPVE           -0.000400360785 Eh   ::
         :: G(RRHO) contrib.            0.024763932070 Eh   ::
         :::::::::::::::::::::::::::::::::::::::::::::::::::::

           -------------------------------------------------
          | TOTAL ENERGY               -9.547123373175 Eh   |
          | TOTAL ENTHALPY             -9.521832404304 Eh   |
          | TOTAL FREE ENERGY          -9.522359441104 Eh   |
          | GRADIENT NORM               0.000302802965 Eh/Î± |
          | HOMO-LUMO GAP               3.156746327427 eV   |
           -------------------------------------------------

 * finished run on 2020/05/12 at 11:44:58.494
