   * xtb version 6.2.2 (9d81278992624c895f80dd42a50cac0aa55982e2) compiled by '@Darwin' on 04/03/2020
          program call               : xtb --input N2O1_1_S_0.input N2O1_1_S_0.xyz --ohess --molden --namespace N2O1_1_S_0 output.out
          number of atoms            :                     3
          number of electrons        :                    16
          charge                     :                     0
          spin                       :                   0.0

   ID    Z sym.   atoms
    1    7 N      1, 2
    2    8 O      3

          :  Hamiltonian                  GFN2-xTB          :
 * total energy  :    -9.6230999 Eh     change       -0.5388046E-10 Eh
 * total energy  :    -9.7408049 Eh     change       -0.1177050E+00 Eh
 * total energy  :    -9.7078231 Eh     change        0.3298175E-01 Eh
 * total energy  :    -9.8408584 Eh     change       -0.1330353E+00 Eh
 * total energy  :    -9.8432990 Eh     change       -0.2440507E-02 Eh
 * total energy  :    -9.8444170 Eh     change       -0.1118052E-02 Eh
 * total energy  :    -9.8448993 Eh     change       -0.4822963E-03 Eh
 * total energy  :    -9.8449327 Eh     change       -0.3344359E-04 Eh
 * total energy  :    -9.8449338 Eh     change       -0.1054719E-05 Eh
   *** GEOMETRY OPTIMIZATION CONVERGED AFTER 9 ITERATIONS ***

 final structure:
================
3
 xtb: 6.2.2 (9d81278992624c895f80dd42a50cac0aa55982e2)
N         0.01495955188899   -0.00016777513163    0.00000000000000
N         1.12031305356837    0.01550167056466    0.00000000000000
O        -1.13527360545735   -0.01533389543303    0.00000000000000

          :  Hamiltonian                  GFN2-xTB          :
         :: gradient norm              0.000810983825 Eh/a0 ::
         :: HOMO-LUMO gap              6.242651134466 eV    ::
         :: SCC energy                -9.957433706162 Eh    ::
         :: -> dispersion             -0.000714753599 Eh    ::
         :: repulsion energy           0.112499908743 Eh    ::

    * Orbital Energies and Occupations

         #    Occupation            Energy/Eh            Energy/eV
      -------------------------------------------------------------
         1        2.0000           -0.8103358             -22.0504
         2        2.0000           -0.7465317             -20.3142
         3        2.0000           -0.6664876             -18.1360
         4        2.0000           -0.6664876             -18.1360
         5        2.0000           -0.6400757             -17.4173
         6        2.0000           -0.5138089             -13.9815
         7        2.0000           -0.4901112             -13.3366
         8        2.0000           -0.4901111             -13.3366 (HOMO)
         9                         -0.2606979              -7.0940 (LUMO)
        10                         -0.2606978              -7.0939
        11                          0.1604643               4.3665
        12                          1.1561267              31.4598
      -------------------------------------------------------------
                  HL-Gap            0.2294132 Eh            6.2427 eV

     #   Z        covCN         q      C6AA      Î±(0)
     1   7 N      1.904     0.493    14.553     5.656
     2   7 N      0.983    -0.222    25.430     7.254
     3   8 O      0.926    -0.271    19.245     5.883

Wiberg/Mayer (AO) data.
largest (>0.10) Wiberg bond orders for each atom
          total WBO             WBO to atom ...

molecular dipole:
                 x           y           z       tot (Debye)
 q only:        0.127       0.001      -0.000
   full:       -0.078      -0.002       0.000       0.199

   temp. (K)  partition function   enthalpy   heat capacity  entropy
                                   cal/mol     cal/K/mol   cal/K/mol   J/K/mol
  10.00  VIB   1.00                    0.000      0.000     -0.000
         ROT   15.7                   19.873      1.987      7.460
         INT   15.7                   19.873      1.987      7.460
         TR   0.174E+25               49.681      4.968     20.396
         TOT                          69.5541     6.9554    27.8561   116.5499

       T/K    H(0)-H(T)+PV         H(T)/Eh          T*S/Eh         G(T)/Eh
   ------------------------------------------------------------------------
    298.15    0.368791E-02    0.155318E-01    0.249718E-01   -0.943996E-02
    120.00    0.133683E-02    0.131807E-01    0.863881E-02    0.454191E-02
    100.00    0.111021E-02    0.129541E-01    0.699255E-02    0.596155E-02
     80.00    0.886978E-03    0.127309E-01    0.539489E-02    0.733597E-02
     60.00    0.665058E-03    0.125089E-01    0.385472E-02    0.865423E-02
     40.00    0.443366E-03    0.122873E-01    0.239009E-02    0.989716E-02
     20.00    0.221683E-03    0.120656E-01    0.104144E-02    0.110241E-01
     10.00    0.110842E-03    0.119547E-01    0.443915E-03    0.115108E-01 (used)
   ------------------------------------------------------------------------

         :::::::::::::::::::::::::::::::::::::::::::::::::::::
         ::                  THERMODYNAMIC                  ::
         :::::::::::::::::::::::::::::::::::::::::::::::::::::
         :: total free energy          -9.833422984419 Eh   ::
         ::.................................................::
         :: total energy               -9.844933799138 Eh   ::
         :: zero point energy           0.011843888337 Eh   ::
         :: G(RRHO) w/o ZPVE           -0.000333073618 Eh   ::
         :: G(RRHO) contrib.            0.011510814720 Eh   ::
         :::::::::::::::::::::::::::::::::::::::::::::::::::::

           -------------------------------------------------
          | TOTAL ENERGY               -9.844933799138 Eh   |
          | TOTAL ENTHALPY             -9.832979069287 Eh   |
          | TOTAL FREE ENERGY          -9.833422984419 Eh   |
          | GRADIENT NORM               0.000811067022 Eh/Î± |
          | HOMO-LUMO GAP               6.242650989292 eV   |
           -------------------------------------------------

 * finished run on 2020/05/12 at 11:43:54.622
