   * xtb version 6.2.2 (9d81278992624c895f80dd42a50cac0aa55982e2) compiled by '@Darwin' on 04/03/2020
          program call               : xtb --input H2C1N2_7_S_2.input H2C1N2_7_S_2.xyz --ohess --molden --namespace H2C1N2_7_S_2 output.out
          number of atoms            :                     5
          number of electrons        :                    16
          charge                     :                     0
          spin                       :                   1.0

   ID    Z sym.   atoms
    1    6 C      1
    2    7 N      2, 3
    3    1 H      4, 5

          :  Hamiltonian                  GFN2-xTB          :
 * total energy  :    -8.7181683 Eh     change       -0.1721725E-08 Eh
 * total energy  :    -8.7763801 Eh     change       -0.5821174E-01 Eh
 * total energy  :    -8.7735982 Eh     change        0.2781876E-02 Eh
 * total energy  :    -8.7966248 Eh     change       -0.2302660E-01 Eh
 * total energy  :    -8.7987799 Eh     change       -0.2155064E-02 Eh
 * total energy  :    -8.7999007 Eh     change       -0.1120875E-02 Eh
 * total energy  :    -8.8001393 Eh     change       -0.2385636E-03 Eh
 * total energy  :    -8.8002311 Eh     change       -0.9178892E-04 Eh
 * total energy  :    -8.8003214 Eh     change       -0.9026197E-04 Eh
 * total energy  :    -8.8005130 Eh     change       -0.1915995E-03 Eh
 * total energy  :    -8.8081301 Eh     change       -0.1129809E-03 Eh
 * total energy  :    -8.8081522 Eh     change       -0.2210641E-04 Eh
 * total energy  :    -8.8082296 Eh     change       -0.7740461E-04 Eh
 * total energy  :    -8.8082738 Eh     change       -0.4422758E-04 Eh
 * total energy  :    -8.8082902 Eh     change       -0.1637540E-04 Eh
 * total energy  :    -8.8083169 Eh     change       -0.2673446E-04 Eh
 * total energy  :    -8.8083224 Eh     change       -0.5462247E-05 Eh
 * total energy  :    -8.8083284 Eh     change       -0.5953980E-05 Eh
 * total energy  :    -8.8083303 Eh     change       -0.1927806E-05 Eh
   *** GEOMETRY OPTIMIZATION CONVERGED AFTER 29 ITERATIONS ***

 final structure:
================
5
 xtb: 6.2.2 (9d81278992624c895f80dd42a50cac0aa55982e2)
C        -0.38495894960582   -0.11824048065039   -0.01310233964724
N         0.89861515314047   -0.31042565790269    0.08473897777110
N        -1.02505622572007    0.97205450614157   -0.08004377482169
H        -0.98097960593456   -1.04907804397770    0.02531438817365
H         1.49237962811998    0.50568867638921   -0.01690825147581

          :  Hamiltonian                  GFN2-xTB          :
         :: gradient norm              0.000770015905 Eh/a0 ::
         :: HOMO-LUMO gap              4.694677274598 eV    ::
         :: SCC energy                -8.918332867182 Eh    ::
         :: -> dispersion             -0.001407339631 Eh    ::
         :: repulsion energy           0.110002547411 Eh    ::

    * Orbital Energies and Occupations

         #    Occupation            Energy/Eh            Energy/eV
      -------------------------------------------------------------
         1        2.0000           -0.6864565             -18.6794
         2        2.0000           -0.6450786             -17.5535
         3        2.0000           -0.5954653             -16.2034
         4        2.0000           -0.5365414             -14.6000
         5        2.0000           -0.5282491             -14.3744
         6        2.0000           -0.4832049             -13.1487
         7        1.6810           -0.4229591             -11.5093
         8        1.3190           -0.4215181             -11.4701
         9        1.0000           -0.3994016             -10.8683 (HOMO)
        10                         -0.2268753              -6.1736 (LUMO)
        11                          0.0714583               1.9445
        12                          0.1900531               5.1716
        13                          0.3226985               8.7811
        14                          0.5555729              15.1179
      -------------------------------------------------------------
                  HL-Gap            0.1725263 Eh            4.6947 eV

     #   Z        covCN         q      C6AA      Î±(0)
     1   6 C      2.743     0.174    24.243     8.062
     2   7 N      1.779    -0.244    27.200     7.724
     3   7 N      0.919    -0.221    25.782     7.339
     4   1 H      0.922     0.107     1.726     2.055
     5   1 H      0.860     0.185     1.187     1.706

Wiberg/Mayer (AO) data.
largest (>0.10) Wiberg bond orders for each atom
          total WBO             WBO to atom ...

molecular dipole:
                 x           y           z       tot (Debye)
 q only:        0.210      -0.336      -0.011
   full:        0.265      -0.378      -0.060       1.183

 projected vibrational frequencies (cm-1)
eigval :       -0.00    -0.00     0.00     0.00     0.00     0.00
eigval :       92.69   299.31   857.19   993.58  1173.57  1294.11
eigval :     1484.06  2738.40  3366.06

   temp. (K)  partition function   enthalpy   heat capacity  entropy
                                   cal/mol     cal/K/mol   cal/K/mol   J/K/mol
  10.00  VIB   1.00                    0.000      0.001     -0.036
         ROT   48.9                   29.809      2.981     10.711
         INT   48.9                   29.809      2.981     10.674
         TR   0.162E+25               49.681      4.968     20.259
         TOT                          79.4908     7.9496    30.9337   129.4268

       T/K    H(0)-H(T)+PV         H(T)/Eh          T*S/Eh         G(T)/Eh
   ------------------------------------------------------------------------
    298.15    0.508315E-02    0.331023E-01    0.300606E-01    0.304170E-02
    120.00    0.176623E-02    0.297853E-01    0.101094E-01    0.196760E-01
    100.00    0.143654E-02    0.294557E-01    0.812585E-02    0.213298E-01
     80.00    0.111800E-02    0.291371E-01    0.621809E-02    0.229190E-01
     60.00    0.812401E-03    0.288315E-01    0.440117E-02    0.244303E-01
     40.00    0.522345E-03    0.285415E-01    0.269965E-02    0.258418E-01
     20.00    0.253889E-03    0.282730E-01    0.116378E-02    0.271092E-01
     10.00    0.126677E-03    0.281458E-01    0.492960E-03    0.276528E-01 (used)
   ------------------------------------------------------------------------

         :::::::::::::::::::::::::::::::::::::::::::::::::::::
         ::                  THERMODYNAMIC                  ::
         :::::::::::::::::::::::::::::::::::::::::::::::::::::
         :: total free energy          -8.780677449678 Eh   ::
         ::.................................................::
         :: total energy               -8.808330286327 Eh   ::
         :: zero point energy           0.028019120436 Eh   ::
         :: G(RRHO) w/o ZPVE           -0.000366283786 Eh   ::
         :: G(RRHO) contrib.            0.027652836650 Eh   ::
         :::::::::::::::::::::::::::::::::::::::::::::::::::::

           -------------------------------------------------
          | TOTAL ENERGY               -8.808330286327 Eh   |
          | TOTAL ENTHALPY             -8.780184489194 Eh   |
          | TOTAL FREE ENERGY          -8.780677449678 Eh   |
          | GRADIENT NORM               0.000769833386 Eh/Î± |
          | HOMO-LUMO GAP               4.694679246834 eV   |
           -------------------------------------------------

 * finished run on 2020/05/12 at 11:45:22.547
