 Gaussian 16, Revision B.01,

 ----------------------------------------------------------------
 #P M062X/cc-pvtz nosymm opt(noeigentest) optcyc=120 freq scf=xqc
 ----------------------------------------------------------------

 -----
 Title
 -----
 Symbolic Z-matrix:
 Charge =  0 Multiplicity = 2

 SCF Done:  E(UM062X) =  -192.120348773     A.U. after   20 cycles
 SCF Done:  E(UM062X) =  -192.136828163     A.U. after   20 cycles
 SCF Done:  E(UM062X) =  -192.143892510     A.U. after   20 cycles
 SCF Done:  E(UM062X) =  -192.143499797     A.U. after   18 cycles
 SCF Done:  E(UM062X) =  -192.143620350     A.U. after   17 cycles
 SCF Done:  E(UM062X) =  -192.144124710     A.U. after   12 cycles
 SCF Done:  E(UM062X) =  -192.144311640     A.U. after   15 cycles
 SCF Done:  E(UM062X) =  -192.144273223     A.U. after   16 cycles
 SCF Done:  E(UM062X) =  -192.144369389     A.U. after   15 cycles
 SCF Done:  E(UM062X) =  -192.144375235     A.U. after   13 cycles
 SCF Done:  E(UM062X) =  -192.144375739     A.U. after    9 cycles
 Optimization completed.
    -- Stationary point found.

 1\1\GINC-N1056\FOpt\UM062X\CC-pVTZ\C5H3(2)\SPANTALEONE\12-Oct-2020\0\\
 #P M062X/cc-pvtz nosymm opt(noeigentest) optcyc=120 freq scf=xqc\\Titl
 e\\0,2\C,-0.2044717618,-0.1741273785,0.1261241106\C,-0.140713099,-0.12
 07971453,1.4772965108\C,-0.0816381917,-0.0715827918,2.7034041563\C,-0.
 0190410796,-0.019073519,4.0575811585\C,0.0365868503,0.0284182754,5.261
 7819303\H,0.0857602331,0.0699769641,6.3223556535\H,0.3718425711,-0.903
 2745894,-0.4243196439\H,-0.8326078292,0.5111548585,-0.4239525141\\Vers
 ion=ES64L-G16RevB.01\HF=-192.1443757\S2=0.788636\S2-1=0.\S2A=0.750896\

 Normal termination of Gaussian 16 at Mon Oct 12 17:29:29 2020.

 -------------------------------------------------------------------
 #P Geom=AllCheck Guess=TCheck SCRF=Check GenChk UM062X/CC-pVTZ Freq
 -------------------------------------------------------------------

 Structure from the checkpoint file:  "input.chk"
 -----
 Title
 -----
 Charge =  0 Multiplicity = 2

 SCF Done:  E(UM062X) =  -192.144375739     A.U. after    1 cycles

  Exact polarizability:  30.693  -1.022  31.005   4.984   4.185 135.550
 Approx polarizability:  36.977  -0.875  37.253   6.496   5.468 173.808

                      1                      2                      3
                      A                      A                      A
 Frequencies --    144.1846               151.3381               352.6956
 Red. masses --      4.3102                 3.6012                 3.5150
 Frc consts  --      0.0528                 0.0486                 0.2576
 IR Inten    --      5.8239                 6.0124                 0.0344

                      4                      5                      6
                      A                      A                      A
 Frequencies --    400.2431               506.4653               531.5474
 Red. masses --      5.0647                 8.2229                 7.7634
 Frc consts  --      0.4780                 1.2427                 1.2924
 IR Inten    --      0.0092                 2.4871                 1.1846

                      7                      8                      9
                      A                      A                      A
 Frequencies --    665.5643               692.9065               729.1698
 Red. masses --      1.2959                 1.2828                 5.6316
 Frc consts  --      0.3382                 0.3629                 1.7642
 IR Inten    --     44.5187                45.8094                 1.0413

                     10                     11                     12
                      A                      A                      A
 Frequencies --    742.6536              1024.4603              1295.6532
 Red. masses --      1.3528                 1.4637                 3.1486
 Frc consts  --      0.4396                 0.9051                 3.1142
 IR Inten    --     46.8042                 0.1751                 1.9129

                     13                     14                     15
                      A                      A                      A
 Frequencies --   1469.2083              2017.7142              2173.4315
 Red. masses --      1.4079                11.5872                 6.4348
 Frc consts  --      1.7905                27.7937                17.9092
 IR Inten    --      0.0013                25.2950                 0.0810

                     16                     17                     18
                      A                      A                      A
 Frequencies --   3170.3938              3265.7532              3483.9178
 Red. masses --      1.0506                 1.1179                 1.1528
 Frc consts  --      6.2217                 7.0245                 8.2439
 IR Inten    --      0.4661                 0.2399               108.2579

 - Thermochemistry -
 -------------------
 Temperature   298.150 Kelvin.  Pressure   1.00000 Atm.
 Atom     1 has atomic number  6 and mass  12.00000

 Molecular mass:    63.02348 amu.
 Principal axes and moments of inertia in atomic units:
                           1         2         3
     Eigenvalues --     6.21079 828.68010 834.89063
           X            0.04689  -0.64832   0.75992
           Y            0.03936   0.76136   0.64713
           Z            0.99812   0.00043  -0.06122
 This molecule is an asymmetric top.
 Rotational symmetry number  1.
 Rotational temperatures (Kelvin)     13.94571     0.10452     0.10374
 Rotational constants (GHZ):         290.58153     2.17785     2.16165
 Zero-point vibrational energy     136477.8 (Joules/Mol)
                                   32.61897 (Kcal/Mol)
 Warning -- explicit consideration of   6 degrees of freedom as
           vibrations may cause significant error
 Vibrational temperatures:    207.45   217.74   507.45   575.86   728.69
          (Kelvin)            764.78   957.60   996.94  1049.11  1068.51
                             1473.97  1864.16  2113.86  2903.04  3127.08
                             4561.49  4698.69  5012.58

 Zero-point correction=                           0.051982 (Hartree/Particle)
 Thermal correction to Energy=                    0.057690
 Thermal correction to Enthalpy=                  0.058634
 Thermal correction to Gibbs Free Energy=         0.024060
 Sum of electronic and zero-point Energies=           -192.092394
 Sum of electronic and thermal Energies=              -192.086686
 Sum of electronic and thermal Enthalpies=            -192.085742
 Sum of electronic and thermal Free Energies=         -192.120316

                     E (Thermal)             CV                S
                      KCal/Mol        Cal/Mol-Kelvin    Cal/Mol-Kelvin
 Total                   36.201             19.093             72.767
 Electronic               0.000              0.000              1.377
 Translational            0.889              2.981             38.342
 Rotational               0.889              2.981             22.979
 Vibrational             34.423             13.131             10.070
 Vibration     1          0.616              1.909              2.748
 Vibration     2          0.619              1.901              2.655
 Vibration     3          0.729              1.570              1.154
 Vibration     4          0.766              1.470              0.962
 Vibration     5          0.862              1.236              0.642
 Vibration     6          0.887              1.180              0.584

                           ! Non-Optimized Parameters !

 1\1\GINC-N1056\Freq\UM062X\CC-pVTZ\C5H3(2)\SPANTALEONE\12-Oct-2020\0\\
 #P Geom=AllCheck Guess=TCheck SCRF=Check GenChk UM062X/CC-pVTZ Freq\\T
 itle\\0,2\C,-0.2044717618,-0.1741273785,0.1261241106\C,-0.140713099,-0
 .1207971453,1.4772965108\C,-0.0816381917,-0.0715827918,2.7034041563\C,
 -0.0190410796,-0.019073519,4.0575811585\C,0.0365868503,0.0284182754,5.
 2617819303\H,0.0857602331,0.0699769641,6.3223556535\H,0.3718425711,-0.
 9032745894,-0.4243196439\H,-0.8326078292,0.5111548585,-0.4239525141\\V
 ersion=ES64L-G16RevB.01\HF=-192.1443757\S2=0.788636\S2-1=0.\S2A=0.7508

 Normal termination of Gaussian 16 at Mon Oct 12 17:33:09 2020.
 Gaussian 16:  ES64L-G16RevB.01 20-Dec-2017

 -------------------------------------------------
 #P ROCCSD(T)/aug-cc-pvtz geom=allcheck guess=read
 -------------------------------------------------

 Structure from the checkpoint file:  "input.chk"
 -----
 Title
 -----
 Charge =  0 Multiplicity = 2

                         Standard orientation:
 ---------------------------------------------------------------------
 Center     Atomic      Atomic             Coordinates (Angstroms)
 Number     Number       Type             X           Y           Z
 ---------------------------------------------------------------------
      1          6           0        2.522003    0.000184   -0.000439
      2          6           0        1.168277    0.000025   -0.000192
      3          6           0       -0.060238   -0.000285    0.001488
      4          6           0       -1.416877   -0.000314    0.000137
      5          6           0       -2.623297    0.000291   -0.000575
      6          1           0       -3.685823    0.000502   -0.001239
      7          1           0        3.073099   -0.928835   -0.000640
      8          1           0        3.073520    0.928935   -0.000634
 ---------------------------------------------------------------------

 SCF Done:  E(ROHF) =  -190.980891229     A.U. after   21 cycles
 E2 =    -0.7634165981D+00 EUMP2 =    -0.19174430782715D+03
 CCSD(T)
 CCSD(T)= -0.19180360738D+03

 The electronic state is 2-A.
 Alpha  occ. eigenvalues --  -11.27478 -11.26544 -11.26224 -11.26142 -11.25233
 Alpha  occ. eigenvalues --   -1.11075  -1.05786  -0.97583  -0.83220  -0.71636
 Alpha  occ. eigenvalues --   -0.68082  -0.63839  -0.53037  -0.48423  -0.44303
 Alpha  occ. eigenvalues --   -0.35641  -0.30433
 Alpha virt. eigenvalues --    0.02827   0.03013   0.04322   0.06553   0.07707
 Alpha virt. eigenvalues --    0.08112   0.08346   0.09442   0.10593   0.11081
 Alpha virt. eigenvalues --    0.11787   0.12026   0.13153   0.13920   0.14029

 Mulliken charges and spin densities:
               1          2
     1  C   -1.379962   0.753960
     2  C    0.295070  -0.024573
     3  C    0.999358   0.193167
     4  C    1.152699  -0.000193
     5  C   -2.051272   0.040396
     6  H    0.328426   0.000380
     7  H    0.327904   0.018430
     8  H    0.327776   0.018434
 Sum of Mulliken charges =  -0.00000   1.00000

 Dipole moment (field-independent basis, Debye):
    X=              0.6613    Y=              0.0006    Z=             -0.0017  Tot=              0.6613
 Quadrupole moment (field-independent basis, Debye-Ang):
   XX=            -16.2227   YY=            -29.9882   ZZ=            -31.9116
   XY=             -0.0009   XZ=              0.0010   YZ=              0.0000

 7576575\CCSD=-191.7587375\CCSD(T)=-191.8036074\RMSD=8.008e-09\PG=C01 [
 Normal termination of Gaussian 16 at Mon Oct 12 19:31:16 2020.
