   * xtb version 6.2.2 (9d81278992624c895f80dd42a50cac0aa55982e2) compiled by '@Darwin' on 04/03/2020
          program call               : xtb --input H2C3_1_S_0.input H2C3_1_S_0.xyz --ohess --molden --namespace H2C3_1_S_0 output.out
          number of atoms            :                     5
          number of electrons        :                    14
          charge                     :                     0
          spin                       :                   0.0

   ID    Z sym.   atoms
    1    6 C      1-3
    2    1 H      4, 5

          :  Hamiltonian                  GFN2-xTB          :
 * total energy  :    -7.0560787 Eh     change       -0.5504042E-10 Eh
 * total energy  :    -7.1033922 Eh     change       -0.4731345E-01 Eh
 * total energy  :    -7.1080545 Eh     change       -0.4662352E-02 Eh
 * total energy  :    -7.1239011 Eh     change       -0.1584656E-01 Eh
 * total energy  :    -7.1258869 Eh     change       -0.1985844E-02 Eh
 * total energy  :    -7.1289250 Eh     change       -0.3038053E-02 Eh
 * total energy  :    -7.1386507 Eh     change       -0.9725724E-02 Eh
 * total energy  :    -7.1497239 Eh     change       -0.1107318E-01 Eh
 * total energy  :    -7.1672666 Eh     change       -0.1754272E-01 Eh
 * total energy  :    -7.1878136 Eh     change       -0.2054699E-01 Eh
 * total energy  :    -7.2222824 Eh     change       -0.8724978E-03 Eh
 * total energy  :    -7.2224799 Eh     change       -0.1975460E-03 Eh
 * total energy  :    -7.2225764 Eh     change       -0.9645233E-04 Eh
 * total energy  :    -7.2226474 Eh     change       -0.7107456E-04 Eh
 * total energy  :    -7.2227324 Eh     change       -0.8497286E-04 Eh
 * total energy  :    -7.2224314 Eh     change        0.3010490E-03 Eh
 * total energy  :    -7.2227721 Eh     change       -0.3407768E-03 Eh
 * total energy  :    -7.2227833 Eh     change       -0.1120946E-04 Eh
 * total energy  :    -7.2227862 Eh     change       -0.2834911E-05 Eh
   *** GEOMETRY OPTIMIZATION CONVERGED AFTER 27 ITERATIONS ***

 final structure:
================
5
 xtb: 6.2.2 (9d81278992624c895f80dd42a50cac0aa55982e2)
C        -0.00984227165771    0.01044191108222   -0.00236912141568
C         1.12262479177683   -0.55027028042890    0.04067604018685
C        -1.30160160142744    0.03284035700963    0.07136816693058
H        -1.96961635807410    0.85996975599230   -0.04944633010723
H         2.15843643938242   -0.35298074365525   -0.06022975559453

          :  Hamiltonian                  GFN2-xTB          :
         :: gradient norm              0.000587500785 Eh/a0 ::
         :: HOMO-LUMO gap              0.427199837007 eV    ::
         :: SCC energy                -7.400069959597 Eh    ::
         :: -> dispersion             -0.001568910988 Eh    ::
         :: repulsion energy           0.177283927544 Eh    ::

    * Orbital Energies and Occupations

         #    Occupation            Energy/Eh            Energy/eV
      -------------------------------------------------------------
         1        2.0000           -0.6319021             -17.1949
         2        2.0000           -0.5971574             -16.2495
         3        2.0000           -0.5283056             -14.3759
         4        2.0000           -0.4818812             -13.1127
         5        2.0000           -0.4612984             -12.5526
         6        2.0000           -0.4601992             -12.5227
         7        1.9995           -0.3550175              -9.6605 (HOMO)
         8        0.0005           -0.3393182              -9.2333 (LUMO)
         9                         -0.1819691              -4.9516
        10                         -0.1299512              -3.5362
        11                          0.1261666               3.4332
        12                          0.2416884               6.5767
Molecule has the following symmetry elements: (sigma)
It seems to be the Cs point group
        13                          0.5819892              15.8367
        14                          1.0811809              29.4204
      -------------------------------------------------------------
                  HL-Gap            0.0156993 Eh            0.4272 eV

     #   Z        covCN         q      C6AA      Î±(0)
     1   6 C      1.962     0.016    30.663     8.942
     2   6 C      1.912    -0.077    33.193     9.305
     3   6 C      1.912    -0.093    33.663     9.370
     4   1 H      0.927     0.074     2.042     2.235
     5   1 H      0.927     0.080     1.982     2.201

Wiberg/Mayer (AO) data.
largest (>0.10) Wiberg bond orders for each atom
          total WBO             WBO to atom ...

molecular dipole:
                 x           y           z       tot (Debye)
 q only:        0.116       0.141      -0.034
   full:        0.308       0.594      -0.135       1.734

 projected vibrational frequencies (cm-1)
eigval :       -0.00    -0.00    -0.00    -0.00     0.00     0.00
eigval :      138.15   330.56   468.01   739.27   811.61  1325.66
eigval :     1822.48  3156.05  3273.78

   temp. (K)  partition function   enthalpy   heat capacity  entropy
                                   cal/mol     cal/K/mol   cal/K/mol   J/K/mol
  10.00  VIB   1.00                    0.000      0.000     -0.015
         ROT   23.0                   29.809      2.981      9.208
         INT   23.0                   29.809      2.981      9.193
         TR   0.139E+25               49.681      4.968     19.962
         TOT                          79.4904     7.9490    29.1552   121.9855

       T/K    H(0)-H(T)+PV         H(T)/Eh          T*S/Eh         G(T)/Eh
   ------------------------------------------------------------------------
    298.15    0.525754E-02    0.327450E-01    0.292031E-01    0.354184E-02
    120.00    0.170625E-02    0.291937E-01    0.963137E-02    0.195623E-01
    100.00    0.138242E-02    0.288698E-01    0.773148E-02    0.211383E-01
     80.00    0.107509E-02    0.285625E-01    0.591136E-02    0.226511E-01
     60.00    0.784416E-03    0.282718E-01    0.418308E-02    0.240887E-01
     40.00    0.511119E-03    0.279985E-01    0.256745E-02    0.254311E-01
     20.00    0.253382E-03    0.277408E-01    0.110521E-02    0.266356E-01
     10.00    0.126676E-03    0.276141E-01    0.464618E-03    0.271495E-01 (used)
   ------------------------------------------------------------------------

         :::::::::::::::::::::::::::::::::::::::::::::::::::::
         ::                  THERMODYNAMIC                  ::
         :::::::::::::::::::::::::::::::::::::::::::::::::::::
         :: total free energy          -7.195636716494 Eh   ::
         ::.................................................::
         :: total energy               -7.222786185520 Eh   ::
         :: zero point energy           0.027487411124 Eh   ::
         :: G(RRHO) w/o ZPVE           -0.000337942097 Eh   ::
         :: G(RRHO) contrib.            0.027149469026 Eh   ::
         :::::::::::::::::::::::::::::::::::::::::::::::::::::

           -------------------------------------------------
          | TOTAL ENERGY               -7.222786185520 Eh   |
          | TOTAL ENTHALPY             -7.195172098380 Eh   |
          | TOTAL FREE ENERGY          -7.195636716494 Eh   |
          | GRADIENT NORM               0.000587456467 Eh/Î± |
          | HOMO-LUMO GAP               0.427199814852 eV   |
           -------------------------------------------------

 * finished run on 2020/05/12 at 11:44:26.036
