   * xtb version 6.2.2 (9d81278992624c895f80dd42a50cac0aa55982e2) compiled by '@Darwin' on 04/03/2020
          program call               : xtb --input C3N1_0_S_3.input C3N1_0_S_3.xyz --ohess --molden --namespace C3N1_0_S_3 output.out
          number of atoms            :                     4
          number of electrons        :                    17
          charge                     :                     0
          spin                       :                   1.5

   ID    Z sym.   atoms
    1    6 C      1-3
    2    7 N      4

          :  Hamiltonian                  GFN2-xTB          :
 * total energy  :    -8.7598876 Eh     change        0.1017577E-08 Eh
 * total energy  :    -8.8097611 Eh     change       -0.4987356E-01 Eh
 * total energy  :    -8.8365903 Eh     change       -0.2682911E-01 Eh
 * total energy  :    -8.8880669 Eh     change       -0.5147661E-01 Eh
 * total energy  :    -8.8678579 Eh     change        0.2020895E-01 Eh
 * total energy  :    -8.9188547 Eh     change       -0.5099684E-01 Eh
 * total energy  :    -8.9255014 Eh     change       -0.6646698E-02 Eh
 * total energy  :    -8.9298587 Eh     change       -0.4357294E-02 Eh
 * total energy  :    -8.9300356 Eh     change       -0.1768192E-03 Eh
 * total energy  :    -8.9300407 Eh     change       -0.5113286E-05 Eh
 * total energy  :    -8.9300427 Eh     change       -0.2002732E-05 Eh
   *** GEOMETRY OPTIMIZATION CONVERGED AFTER 11 ITERATIONS ***

 final structure:
================
4
 xtb: 6.2.2 (9d81278992624c895f80dd42a50cac0aa55982e2)
C         0.83321835654092   -0.82010201074122   -0.05461614292009
C        -0.05750641887706    0.33350020867020    0.02615398902906
C        -0.51027672422650   -1.05206103200795   -0.05086375801432
N        -0.26543521343736    1.53866283407897    0.07932591190536

          :  Hamiltonian                  GFN2-xTB          :
         :: gradient norm              0.000709958334 Eh/a0 ::
         :: HOMO-LUMO gap              1.745977071325 eV    ::
         :: SCC energy                -9.071288099475 Eh    ::
         :: -> dispersion             -0.001734357464 Eh    ::
         :: repulsion energy           0.141245414530 Eh    ::

    * Orbital Energies and Occupations

         #    Occupation            Energy/Eh            Energy/eV
      -------------------------------------------------------------
         1        2.0000           -0.7342692             -19.9805
         2        2.0000           -0.6882248             -18.7276
         3        2.0000           -0.5981935             -16.2777
         4        2.0000           -0.5711902             -15.5429
         5        2.0000           -0.5661702             -15.4063
         6        2.0000           -0.4941343             -13.4461
         7        1.9110           -0.4780901             -13.0095
         8        1.0890           -0.4736711             -12.8892
         9        1.0000           -0.4423710             -12.0375
        10        1.0000           -0.3732924             -10.1578 (HOMO)
        11                         -0.3091287              -8.4118 (LUMO)
        12                         -0.2483403              -6.7577
        13                         -0.0359261              -0.9776
        14                          0.0777022               2.1144
        15                          0.3868137              10.5257
        16                          0.7489845              20.3809
      -------------------------------------------------------------
                  HL-Gap            0.0641637 Eh            1.7460 eV

     #   Z        covCN         q      C6AA      Î±(0)
     1   6 C      1.959    -0.005    31.213     9.022
     2   6 C      2.868     0.195    23.857     8.007
     3   6 C      1.959    -0.005    31.213     9.022
     4   7 N      0.911    -0.184    24.994     7.231

Wiberg/Mayer (AO) data.
largest (>0.10) Wiberg bond orders for each atom
          total WBO             WBO to atom ...

molecular dipole:
Molecule has the following symmetry elements: (C2) 2*(sigma)
It seems to be the C2v point group
                 x           y           z       tot (Debye)
 q only:        0.068      -0.394      -0.017
   full:        0.077      -0.445      -0.010       1.147

 projected vibrational frequencies (cm-1)
eigval :       -0.00    -0.00     0.00     0.00     0.00     0.00
eigval :      232.90   384.61   670.31   912.58  1489.88  1743.87

   temp. (K)  partition function   enthalpy   heat capacity  entropy
                                   cal/mol     cal/K/mol   cal/K/mol   J/K/mol
  10.00  VIB   1.00                    0.000      0.000     -0.004
         ROT   49.0                   29.809      2.981     10.715
         INT   49.0                   29.809      2.981     10.711
         TR   0.210E+25               49.681      4.968     20.778
         TOT                          79.4904     7.9490    31.4896   131.7525

       T/K    H(0)-H(T)+PV         H(T)/Eh          T*S/Eh         G(T)/Eh
   ------------------------------------------------------------------------
    298.15    0.479600E-02    0.171759E-01    0.293834E-01   -0.122074E-01
    120.00    0.160803E-02    0.139879E-01    0.991483E-02    0.407312E-02
    100.00    0.131247E-02    0.136924E-01    0.799318E-02    0.569920E-02
     80.00    0.103151E-02    0.134114E-01    0.614405E-02    0.726737E-02
     60.00    0.764228E-03    0.131441E-01    0.437765E-02    0.876650E-02
     40.00    0.506950E-03    0.128869E-01    0.270999E-02    0.101769E-01
     20.00    0.253352E-03    0.126333E-01    0.117925E-02    0.114540E-01
     10.00    0.126676E-03    0.125066E-01    0.501819E-03    0.120048E-01 (used)
   ------------------------------------------------------------------------

         :::::::::::::::::::::::::::::::::::::::::::::::::::::
         ::                  THERMODYNAMIC                  ::
         :::::::::::::::::::::::::::::::::::::::::::::::::::::
         :: total free energy          -8.918037900244 Eh   ::
         ::.................................................::
         :: total energy               -8.930042676242 Eh   ::
         :: zero point energy           0.012379918656 Eh   ::
         :: G(RRHO) w/o ZPVE           -0.000375142658 Eh   ::
         :: G(RRHO) contrib.            0.012004775998 Eh   ::
         :::::::::::::::::::::::::::::::::::::::::::::::::::::

           -------------------------------------------------
          | TOTAL ENERGY               -8.930042676242 Eh   |
          | TOTAL ENTHALPY             -8.917536081571 Eh   |
          | TOTAL FREE ENERGY          -8.918037900244 Eh   |
          | GRADIENT NORM               0.000710265920 Eh/Î± |
          | HOMO-LUMO GAP               1.745984352791 eV   |
           -------------------------------------------------

 * finished run on 2020/05/12 at 11:45:03.784
