   * xtb version 6.2.2 (9d81278992624c895f80dd42a50cac0aa55982e2) compiled by '@Darwin' on 04/03/2020
          program call               : xtb --input C3N1_3_S_1.input C3N1_3_S_1.xyz --ohess --molden --namespace C3N1_3_S_1 output.out
          number of atoms            :                     4
          number of electrons        :                    17
          charge                     :                     0
          spin                       :                   0.5

   ID    Z sym.   atoms
    1    6 C      1, 3, 4
    2    7 N      2

          :  Hamiltonian                  GFN2-xTB          :
 * total energy  :    -8.8598322 Eh     change        0.7593925E-10 Eh
 * total energy  :    -8.9780938 Eh     change       -0.1182615E+00 Eh
 * total energy  :    -8.9519847 Eh     change        0.2610909E-01 Eh
 * total energy  :    -9.0422460 Eh     change       -0.9026131E-01 Eh
 * total energy  :    -9.0426177 Eh     change       -0.3717000E-03 Eh
 * total energy  :    -9.0556087 Eh     change       -0.1299102E-01 Eh
 * total energy  :    -9.0582002 Eh     change       -0.2591493E-02 Eh
 * total energy  :    -9.0618121 Eh     change       -0.3611861E-02 Eh
 * total energy  :    -9.0618692 Eh     change       -0.5711145E-04 Eh
 * total energy  :    -9.0641506 Eh     change       -0.2281386E-02 Eh
 * total energy  :    -9.0661457 Eh     change       -0.3571805E-04 Eh
 * total energy  :    -9.0661620 Eh     change       -0.1628886E-04 Eh
 * total energy  :    -9.0661758 Eh     change       -0.1380133E-04 Eh
 * total energy  :    -9.0661655 Eh     change        0.1028834E-04 Eh
 * total energy  :    -9.0661797 Eh     change       -0.1419694E-04 Eh
 * total energy  :    -9.0661820 Eh     change       -0.2240617E-05 Eh
 * total energy  :    -9.0661862 Eh     change       -0.4225487E-05 Eh
 * total energy  :    -9.0662113 Eh     change       -0.2508618E-04 Eh
 * total energy  :    -9.0662153 Eh     change       -0.4020782E-05 Eh
   *** GEOMETRY OPTIMIZATION CONVERGED AFTER 27 ITERATIONS ***

 final structure:
================
4
 xtb: 6.2.2 (9d81278992624c895f80dd42a50cac0aa55982e2)
C        -1.82430753615268   -0.03116915394881   -0.04339910154810
N        -0.66103685271599   -0.00794724221245   -0.01968841535958
C         0.64270150194642    0.03048302252387   -0.00109325962302
C         1.84264288692226    0.00863337363738    0.06418177653071

          :  Hamiltonian                  GFN2-xTB          :
         :: gradient norm              0.000723985837 Eh/a0 ::
         :: HOMO-LUMO gap              3.918922481659 eV    ::
         :: SCC energy                -9.298816639390 Eh    ::
         :: -> dispersion             -0.001821036383 Eh    ::
         :: repulsion energy           0.232601410588 Eh    ::

    * Orbital Energies and Occupations

         #    Occupation            Energy/Eh            Energy/eV
      -------------------------------------------------------------
         1        2.0000           -0.6986638             -19.0116
         2        2.0000           -0.6687519             -18.1977
         3        2.0000           -0.6302410             -17.1497
         4        2.0000           -0.5570435             -15.1579
         5        2.0000           -0.5570346             -15.1577
         6        2.0000           -0.4716727             -12.8349
         7        2.0000           -0.4534042             -12.3378
         8        2.0000           -0.4532882             -12.3346
         9        1.0000           -0.4268035             -11.6139 (HOMO)
        10                         -0.2827863              -7.6950 (LUMO)
        11                         -0.2826993              -7.6926
        12                         -0.1361145              -3.7039
        13                         -0.1355196              -3.6877
        14                          0.0914791               2.4893
        15                          0.8794729              23.9317
        16                          1.3799623              37.5507
      -------------------------------------------------------------
                  HL-Gap            0.1440172 Eh            3.9189 eV

     #   Z        covCN         q      C6AA      Î±(0)
     1   6 C      0.917    -0.094    38.439    10.379
     2   7 N      1.822     0.104    20.075     6.639
     3   6 C      1.898     0.048    29.900     8.831
     4   6 C      0.982    -0.058    37.705    10.314

Wiberg/Mayer (AO) data.
largest (>0.10) Wiberg bond orders for each atom
          total WBO             WBO to atom ...

molecular dipole:
                 x           y           z       tot (Debye)
 q only:        0.052       0.006      -0.003
   full:        0.344       0.023      -0.006       0.877

 projected vibrational frequencies (cm-1)
eigval :       -0.00    -0.00    -0.00     0.00     0.00     0.00
eigval :      101.21   256.34   260.80   964.56  2163.31  2257.05

   temp. (K)  partition function   enthalpy   heat capacity  entropy
                                   cal/mol     cal/K/mol   cal/K/mol   J/K/mol
  10.00  VIB   1.00                    0.000      0.000     -0.034
         ROT   5.52                   29.809      2.981      6.375
         INT   5.52                   29.809      2.981      6.341
         TR   0.210E+25               49.681      4.968     20.778
         TOT                          79.4905     7.9492    27.1192   113.4669

       T/K    H(0)-H(T)+PV         H(T)/Eh          T*S/Eh         G(T)/Eh
   ------------------------------------------------------------------------
    298.15    0.550105E-02    0.191775E-01    0.289749E-01   -0.979739E-02
    120.00    0.182629E-02    0.155027E-01    0.944666E-02    0.605606E-02
    100.00    0.146548E-02    0.151419E-01    0.754479E-02    0.759711E-02
     80.00    0.112531E-02    0.148017E-01    0.573358E-02    0.906815E-02
     60.00    0.809520E-03    0.144859E-01    0.402880E-02    0.104571E-01
     40.00    0.519348E-03    0.141958E-01    0.245125E-02    0.117445E-01
     20.00    0.253670E-03    0.139301E-01    0.104154E-02    0.128886E-01
     10.00    0.126676E-03    0.138031E-01    0.432172E-03    0.133709E-01 (used)
   ------------------------------------------------------------------------

         :::::::::::::::::::::::::::::::::::::::::::::::::::::
         ::                  THERMODYNAMIC                  ::
         :::::::::::::::::::::::::::::::::::::::::::::::::::::
         :: total free energy          -9.052844389447 Eh   ::
         ::.................................................::
         :: total energy               -9.066215317197 Eh   ::
         :: zero point energy           0.013676423955 Eh   ::
         :: G(RRHO) w/o ZPVE           -0.000305496204 Eh   ::
         :: G(RRHO) contrib.            0.013370927750 Eh   ::
         :::::::::::::::::::::::::::::::::::::::::::::::::::::

           -------------------------------------------------
          | TOTAL ENERGY               -9.066215317197 Eh   |
          | TOTAL ENTHALPY             -9.052412217008 Eh   |
          | TOTAL FREE ENERGY          -9.052844389447 Eh   |
          | GRADIENT NORM               0.000724027433 Eh/Î± |
          | HOMO-LUMO GAP               3.918906176266 eV   |
           -------------------------------------------------

 * finished run on 2020/05/12 at 11:45:04.753
