   * xtb version 6.2.2 (9d81278992624c895f80dd42a50cac0aa55982e2) compiled by '@Darwin' on 04/03/2020
          program call               : xtb --input H2_0_S_0.input H2_0_S_0.xyz --ohess --molden --namespace H2_0_S_0 output.out
          number of atoms            :                     2
          number of electrons        :                     2
          charge                     :                     0
          spin                       :                   0.0

   ID    Z sym.   atoms
    1    1 H      1, 2

          :  Hamiltonian                  GFN2-xTB          :
 * total energy  :    -0.9800223 Eh     change       -0.2220446E-15 Eh
 * total energy  :    -0.9826085 Eh     change       -0.2586195E-02 Eh
 * total energy  :    -0.9826826 Eh     change       -0.7406096E-04 Eh
 * total energy  :    -0.9826855 Eh     change       -0.2908833E-05 Eh
   *** GEOMETRY OPTIMIZATION CONVERGED AFTER 4 ITERATIONS ***

 final structure:
================
2
 xtb: 6.2.2 (9d81278992624c895f80dd42a50cac0aa55982e2)
H         0.38894771002080   -0.00000000000000    0.00000000000000
H        -0.38894771002080    0.00000000000000    0.00000000000000

          :  Hamiltonian                  GFN2-xTB          :
         :: gradient norm              0.000856620507 Eh/a0 ::
         :: HOMO-LUMO gap             16.044517601683 eV    ::
         :: SCC energy                -1.014780325886 Eh    ::
         :: -> dispersion             -0.000053195212 Eh    ::
         :: repulsion energy           0.032094837294 Eh    ::

    * Orbital Energies and Occupations

         #    Occupation            Energy/Eh            Energy/eV
      -------------------------------------------------------------
         1        2.0000           -0.4645281             -12.6405 (HOMO)
         2                          0.1250971               3.4041 (LUMO)
      -------------------------------------------------------------
                  HL-Gap            0.5896252 Eh           16.0445 eV

     #   Z        covCN         q      C6AA      α(0)
     1   1 H      0.810    -0.000     3.108     2.768
     2   1 H      0.810     0.000     3.108     2.768

Wiberg/Mayer (AO) data.
largest (>0.10) Wiberg bond orders for each atom
          total WBO             WBO to atom ...

molecular dipole:
                 x           y           z       tot (Debye)
 q only:       -0.000       0.000       0.000
   full:       -0.000       0.000       0.000       0.000

   temp. (K)  partition function   enthalpy   heat capacity  entropy
                                   cal/mol     cal/K/mol   cal/K/mol   J/K/mol
  10.00  VIB   1.00                    0.000      0.000     -0.000
         ROT  0.629E-01               19.873      1.987     -3.511
         INT  0.629E-01               19.873      1.987     -3.511
         TR   0.170E+23               49.681      4.968     11.209
         TOT                          69.5541     6.9554     7.6983    32.2097

       T/K    H(0)-H(T)+PV         H(T)/Eh          T*S/Eh         G(T)/Eh
   ------------------------------------------------------------------------
    298.15    0.330474E-02    0.118232E-01    0.148734E-01   -0.305028E-02
    120.00    0.133010E-02    0.984851E-02    0.477618E-02    0.507233E-02
    100.00    0.110842E-02    0.962683E-02    0.377813E-02    0.584869E-02
     80.00    0.886732E-03    0.940514E-02    0.282471E-02    0.658044E-02
     60.00    0.665049E-03    0.918346E-02    0.192727E-02    0.725618E-02
     40.00    0.443366E-03    0.896178E-02    0.110514E-02    0.785663E-02
     20.00    0.221683E-03    0.874009E-02    0.398966E-03    0.834113E-02
     10.00    0.110842E-03    0.862925E-02    0.122680E-03    0.850657E-02 (used)
   ------------------------------------------------------------------------

         :::::::::::::::::::::::::::::::::::::::::::::::::::::
         ::                  THERMODYNAMIC                  ::
         :::::::::::::::::::::::::::::::::::::::::::::::::::::
         :: total free energy          -0.974178917332 Eh   ::
         ::.................................................::
         :: total energy               -0.982685488593 Eh   ::
         :: zero point energy           0.008518410112 Eh   ::
         :: G(RRHO) w/o ZPVE           -0.000011838851 Eh   ::
         :: G(RRHO) contrib.            0.008506571261 Eh   ::
         :::::::::::::::::::::::::::::::::::::::::::::::::::::

           -------------------------------------------------
          | TOTAL ENERGY               -0.982685488593 Eh   |
          | TOTAL ENTHALPY             -0.974056236967 Eh   |
          | TOTAL FREE ENERGY          -0.974178917332 Eh   |
          | GRADIENT NORM               0.000856620507 Eh/α |
          | HOMO-LUMO GAP              16.044517601683 eV   |
           -------------------------------------------------

 * finished run on 2020/05/13 at 16:20:26.783
