   * xtb version 6.2.2 (9d81278992624c895f80dd42a50cac0aa55982e2) compiled by '@Darwin' on 04/03/2020
          program call               : xtb --input C4_5_S_2.input C4_5_S_2.xyz --ohess --molden --namespace C4_5_S_2 output.out
          number of atoms            :                     4
          number of electrons        :                    16
          charge                     :                     0
          spin                       :                   1.0

   ID    Z sym.   atoms
    1    6 C      1-4

          :  Hamiltonian                  GFN2-xTB          :
 * total energy  :    -7.9544626 Eh     change       -0.1143361E-09 Eh
 * total energy  :    -7.9549693 Eh     change       -0.5066239E-03 Eh
 * total energy  :    -7.9554952 Eh     change       -0.5259673E-03 Eh
 * total energy  :    -7.9734351 Eh     change       -0.1793984E-01 Eh
 * total energy  :    -8.0338992 Eh     change       -0.6046415E-01 Eh
 * total energy  :    -8.0700454 Eh     change       -0.3614614E-01 Eh
 * total energy  :    -8.0820419 Eh     change       -0.1199652E-01 Eh
 * total energy  :    -8.0970919 Eh     change       -0.1505006E-01 Eh
 * total energy  :    -8.1127111 Eh     change       -0.1561920E-01 Eh
 * total energy  :    -8.1193266 Eh     change       -0.6615511E-02 Eh
 * total energy  :    -8.1217924 Eh     change       -0.2465705E-02 Eh
 * total energy  :    -8.1223100 Eh     change       -0.5176864E-03 Eh
 * total energy  :    -8.1224837 Eh     change       -0.1736335E-03 Eh
 * total energy  :    -8.1224839 Eh     change       -0.2707441E-06 Eh
   *** GEOMETRY OPTIMIZATION CONVERGED AFTER 14 ITERATIONS ***

 final structure:
================
4
 xtb: 6.2.2 (9d81278992624c895f80dd42a50cac0aa55982e2)
C        -0.20538790104534    0.56022478463666    0.76782610816037
C        -0.16474719262134   -0.65222898085924   -0.70217615495730
C        -0.09250580063316    0.74551161830602   -0.61745558308567
C         0.46264089429985   -0.65350742208343    0.55180462988260

          :  Hamiltonian                  GFN2-xTB          :
         :: gradient norm              0.000241328737 Eh/a0 ::
         :: HOMO-LUMO gap              2.493242310600 eV    ::
         :: SCC energy                -8.248804705348 Eh    ::
         :: -> dispersion             -0.001705839676 Eh    ::
         :: repulsion energy           0.126320754684 Eh    ::

    * Orbital Energies and Occupations

         #    Occupation            Energy/Eh            Energy/eV
      -------------------------------------------------------------
         1        2.0000           -0.7392969             -20.1173
         2        2.0000           -0.6283264             -17.0976
         3        2.0000           -0.6283259             -17.0976
         4        2.0000           -0.5530875             -15.0503
         5        2.0000           -0.5337377             -14.5237
         6        2.0000           -0.4803518             -13.0710
         7        2.0000           -0.4635492             -12.6138
         8        1.0000           -0.4132378             -11.2448
         9        1.0000           -0.4132374             -11.2448 (HOMO)
        10                         -0.3216125              -8.7515 (LUMO)
        11                         -0.3216119              -8.7515
        12                         -0.2357929              -6.4163
        13                          0.1274216               3.4673
        14                          0.1769278               4.8144
        15                          0.1769337               4.8146
        16                          0.5707595              15.5312
      -------------------------------------------------------------
                  HL-Gap            0.0916249 Eh            2.4932 eV

     #   Z        covCN         q      C6AA      Î±(0)
     1   6 C      2.638    -0.000    28.014     8.658
     2   6 C      2.638    -0.000    28.014     8.658
     3   6 C      2.638     0.000    28.014     8.658
     4   6 C      2.638     0.000    28.014     8.658

Wiberg/Mayer (AO) data.
largest (>0.10) Wiberg bond orders for each atom
          total WBO             WBO to atom ...

molecular dipole:
                 x           y           z       tot (Debye)
 q only:        0.000       0.000       0.000
   full:       -0.000       0.000       0.000       0.000

 projected vibrational frequencies (cm-1)
eigval :       -0.00    -0.00     0.00     0.00     0.00     0.00
eigval :      559.73   635.39   914.06  1070.49  1070.51  1459.84
Molecule has the following symmetry elements: 3*(C2) (S4) 2*(sigma)
It seems to be the D2d point group

   temp. (K)  partition function   enthalpy   heat capacity  entropy
                                   cal/mol     cal/K/mol   cal/K/mol   J/K/mol
  10.00  VIB   1.00                    0.000      0.000     -0.000
         ROT   18.3                   29.809      2.981      8.757
         INT   18.3                   29.809      2.981      8.757
         TR   0.198E+25               49.681      4.968     20.657
         TOT                          79.4904     7.9490    29.4143   123.0692

       T/K    H(0)-H(T)+PV         H(T)/Eh          T*S/Eh         G(T)/Eh
   ------------------------------------------------------------------------
    298.15    0.421489E-02    0.172233E-01    0.273662E-01   -0.101430E-01
    120.00    0.152474E-02    0.145331E-01    0.940648E-02    0.512665E-02
    100.00    0.126789E-02    0.142763E-01    0.760470E-02    0.667157E-02
     80.00    0.101355E-02    0.140219E-01    0.585683E-02    0.816510E-02
     60.00    0.760061E-03    0.137684E-01    0.417392E-02    0.959452E-02
     40.00    0.506704E-03    0.135151E-01    0.257722E-02    0.109379E-01
     20.00    0.253352E-03    0.132617E-01    0.111305E-02    0.121487E-01
     10.00    0.126676E-03    0.131351E-01    0.468746E-03    0.126663E-01 (used)
   ------------------------------------------------------------------------

         :::::::::::::::::::::::::::::::::::::::::::::::::::::
         ::                  THERMODYNAMIC                  ::
         :::::::::::::::::::::::::::::::::::::::::::::::::::::
         :: total free energy          -8.109817628708 Eh   ::
         ::.................................................::
         :: total energy               -8.122483945526 Eh   ::
         :: zero point energy           0.013008386801 Eh   ::
         :: G(RRHO) w/o ZPVE           -0.000342069983 Eh   ::
         :: G(RRHO) contrib.            0.012666316818 Eh   ::
         :::::::::::::::::::::::::::::::::::::::::::::::::::::

           -------------------------------------------------
          | TOTAL ENERGY               -8.122483945526 Eh   |
          | TOTAL ENTHALPY             -8.109348882710 Eh   |
          | TOTAL FREE ENERGY          -8.109817628708 Eh   |
          | GRADIENT NORM               0.000241157580 Eh/Î± |
          | HOMO-LUMO GAP               2.493239926265 eV   |
           -------------------------------------------------

 * finished run on 2020/05/12 at 14:38:41.045
