   * xtb version 6.2.2 (9d81278992624c895f80dd42a50cac0aa55982e2) compiled by '@Darwin' on 04/03/2020
          program call               : xtb --input H2C1N2_5_S_0.input H2C1N2_5_S_0.xyz --ohess --molden --namespace H2C1N2_5_S_0 output.out
          number of atoms            :                     5
          number of electrons        :                    16
          charge                     :                     0
          spin                       :                   0.0

   ID    Z sym.   atoms
    1    7 N      1, 3
    2    6 C      2
    3    1 H      4, 5

          :  Hamiltonian                  GFN2-xTB          :
 * total energy  :    -8.7527081 Eh     change        0.6668266E-10 Eh
 * total energy  :    -8.8137388 Eh     change       -0.6103069E-01 Eh
 * total energy  :    -8.7746151 Eh     change        0.3912369E-01 Eh
 * total energy  :    -8.8684441 Eh     change       -0.9382899E-01 Eh
 * total energy  :    -8.8767477 Eh     change       -0.8303578E-02 Eh
 * total energy  :    -8.8811601 Eh     change       -0.4412444E-02 Eh
 * total energy  :    -8.8838650 Eh     change       -0.2704922E-02 Eh
 * total energy  :    -8.8859022 Eh     change       -0.2037125E-02 Eh
 * total energy  :    -8.8869258 Eh     change       -0.1023581E-02 Eh
 * total energy  :    -8.8871834 Eh     change       -0.2576214E-03 Eh
 * total energy  :    -8.8873713 Eh     change       -0.1879645E-03 Eh
 * total energy  :    -8.8873810 Eh     change       -0.9662131E-05 Eh
 * total energy  :    -8.8873832 Eh     change       -0.2164432E-05 Eh
   *** GEOMETRY OPTIMIZATION CONVERGED AFTER 13 ITERATIONS ***

 final structure:
================
5
 xtb: 6.2.2 (9d81278992624c895f80dd42a50cac0aa55982e2)
N         0.73340354968172   -0.04719029810353    0.03031601225247
C         1.88943820018559   -0.08947995676100   -0.08344045043646
N        -0.58409851197618   -0.01768139152640    0.25410555581380
H        -0.97310036425113    0.90145699275093    0.06321733393359
H        -1.06564187364000   -0.74710534636000   -0.26419845156341

          :  Hamiltonian                  GFN2-xTB          :
         :: gradient norm              0.000720637125 Eh/a0 ::
         :: HOMO-LUMO gap              5.424892278041 eV    ::
         :: SCC energy                -9.026192186698 Eh    ::
         :: -> dispersion             -0.001460274955 Eh    ::
         :: repulsion energy           0.138809012013 Eh    ::

    * Orbital Energies and Occupations

         #    Occupation            Energy/Eh            Energy/eV
      -------------------------------------------------------------
         1        2.0000           -0.6871906             -18.6994
         2        2.0000           -0.6440280             -17.5249
         3        2.0000           -0.5918712             -16.1056
         4        2.0000           -0.5766099             -15.6904
         5        2.0000           -0.5253332             -14.2950
         6        2.0000           -0.4618752             -12.5683
         7        2.0000           -0.4224352             -11.4950
         8        2.0000           -0.4016250             -10.9288 (HOMO)
         9                         -0.2022639              -5.5039 (LUMO)
        10                         -0.1886866              -5.1344
        11                         -0.0172993              -0.4707
        12                          0.0983591               2.6765
        13                          0.1910883               5.1998
        14                          1.0072926              27.4098
      -------------------------------------------------------------
                  HL-Gap            0.1993612 Eh            5.4249 eV

     #   Z        covCN         q      C6AA      Î±(0)
     1   7 N      1.890     0.061    20.842     6.768
     2   6 C      0.912    -0.182    41.425    10.772
     3   7 N      2.701    -0.208    25.523     7.503
     4   1 H      0.860     0.165     1.306     1.790
     5   1 H      0.860     0.165     1.306     1.790

Wiberg/Mayer (AO) data.
largest (>0.10) Wiberg bond orders for each atom
          total WBO             WBO to atom ...

molecular dipole:
                 x           y           z       tot (Debye)
 q only:       -0.970       0.080      -0.130
   full:       -1.466       0.155      -0.366       3.862

 projected vibrational frequencies (cm-1)
eigval :       -0.00    -0.00    -0.00    -0.00     0.00     0.00
eigval :      340.50   389.32   812.96  1082.05  1146.92  1472.06
eigval :     2236.81  3340.84  3375.88

   temp. (K)  partition function   enthalpy   heat capacity  entropy
                                   cal/mol     cal/K/mol   cal/K/mol   J/K/mol
  10.00  VIB   1.00                    0.000      0.000     -0.001
         ROT   28.7                   29.809      2.981      9.649
         INT   28.7                   29.809      2.981      9.647
         TR   0.162E+25               49.681      4.968     20.259
         TOT                          79.4904     7.9490    29.9069   125.1306

       T/K    H(0)-H(T)+PV         H(T)/Eh          T*S/Eh         G(T)/Eh
   ------------------------------------------------------------------------
    298.15    0.459662E-02    0.369405E-01    0.282368E-01    0.870372E-02
    120.00    0.156378E-02    0.339077E-01    0.954943E-02    0.243583E-01
    100.00    0.128502E-02    0.336289E-01    0.770397E-02    0.259250E-01
     80.00    0.101843E-02    0.333623E-01    0.592546E-02    0.274369E-01
     60.00    0.760654E-03    0.331046E-01    0.422180E-02    0.288828E-01
     40.00    0.506713E-03    0.328506E-01    0.260869E-02    0.302419E-01
     20.00    0.253352E-03    0.325973E-01    0.112877E-02    0.314685E-01
     10.00    0.126676E-03    0.324706E-01    0.476597E-03    0.319940E-01 (used)
   ------------------------------------------------------------------------

         :::::::::::::::::::::::::::::::::::::::::::::::::::::
         ::                  THERMODYNAMIC                  ::
         :::::::::::::::::::::::::::::::::::::::::::::::::::::
         :: total free energy          -8.855389167747 Eh   ::
         ::.................................................::
         :: total energy               -8.887383162953 Eh   ::
         :: zero point energy           0.032343916342 Eh   ::
         :: G(RRHO) w/o ZPVE           -0.000349921136 Eh   ::
         :: G(RRHO) contrib.            0.031993995206 Eh   ::
         :::::::::::::::::::::::::::::::::::::::::::::::::::::

           -------------------------------------------------
          | TOTAL ENERGY               -8.887383162953 Eh   |
          | TOTAL ENTHALPY             -8.854912570595 Eh   |
          | TOTAL FREE ENERGY          -8.855389167747 Eh   |
          | GRADIENT NORM               0.000720629372 Eh/Î± |
          | HOMO-LUMO GAP               5.424893061328 eV   |
           -------------------------------------------------

 * finished run on 2020/05/12 at 11:45:21.723
