   * xtb version 6.2.2 (9d81278992624c895f80dd42a50cac0aa55982e2) compiled by '@Darwin' on 04/03/2020
          program call               : xtb --input H2C2O1_3_S_0.input H2C2O1_3_S_0.xyz --ohess --molden --namespace H2C2O1_3_S_0 output.out
          number of atoms            :                     5
          number of electrons        :                    16
          charge                     :                     0
          spin                       :                   0.0

   ID    Z sym.   atoms
    1    6 C      1, 2
    2    8 O      3
    3    1 H      4, 5

          :  Hamiltonian                  GFN2-xTB          :
 * total energy  :    -9.1195169 Eh     change        0.3818634E-09 Eh
 * total energy  :    -9.2175619 Eh     change       -0.9804504E-01 Eh
 * total energy  :    -9.2505985 Eh     change       -0.3303658E-01 Eh
 * total energy  :    -9.2869838 Eh     change       -0.3638527E-01 Eh
 * total energy  :    -9.3019757 Eh     change       -0.1499186E-01 Eh
 * total energy  :    -9.3103307 Eh     change       -0.8355077E-02 Eh
 * total energy  :    -9.3145983 Eh     change       -0.4267550E-02 Eh
 * total energy  :    -9.3166027 Eh     change       -0.2004448E-02 Eh
 * total energy  :    -9.3171279 Eh     change       -0.5251280E-03 Eh
 * total energy  :    -9.3176857 Eh     change       -0.5578207E-03 Eh
 * total energy  :    -9.3178969 Eh     change       -0.2111852E-03 Eh
 * total energy  :    -9.3180871 Eh     change       -0.1902757E-03 Eh
 * total energy  :    -9.3181463 Eh     change       -0.5911508E-04 Eh
 * total energy  :    -9.3177630 Eh     change        0.3832300E-03 Eh
 * total energy  :    -9.3181853 Eh     change       -0.4222211E-03 Eh
 * total energy  :    -9.3181866 Eh     change       -0.1334285E-05 Eh
   *** GEOMETRY OPTIMIZATION CONVERGED AFTER 16 ITERATIONS ***

 final structure:
================
5
 xtb: 6.2.2 (9d81278992624c895f80dd42a50cac0aa55982e2)
C         0.75369733301411   -0.11263642743937   -0.02989134998606
C        -0.51971353866843    0.07804775727394    0.01985942553877
O         1.90205038298115   -0.28504332188608   -0.07389660681365
H        -0.93165290577556    0.95321973988181    0.48241904645174
H        -1.20438127155127   -0.63358774783029   -0.39849051519079

          :  Hamiltonian                  GFN2-xTB          :
         :: gradient norm              0.000843398437 Eh/a0 ::
         :: HOMO-LUMO gap              3.687775018157 eV    ::
         :: SCC energy                -9.473727403225 Eh    ::
         :: -> dispersion             -0.001369800088 Eh    ::
         :: repulsion energy           0.155540804034 Eh    ::

    * Orbital Energies and Occupations

         #    Occupation            Energy/Eh            Energy/eV
      -------------------------------------------------------------
         1        2.0000           -0.7468826             -20.3237
         2        2.0000           -0.6498610             -17.6836
         3        2.0000           -0.5824906             -15.8504
         4        2.0000           -0.5739647             -15.6184
         5        2.0000           -0.5706326             -15.5277
         6        2.0000           -0.5132807             -13.9671
         7        2.0000           -0.4867743             -13.2458
         8        2.0000           -0.3903767             -10.6227 (HOMO)
         9                         -0.2548535              -6.9349 (LUMO)
        10                         -0.1655352              -4.5044
        11                          0.1350535               3.6750
        12                          0.3258931               8.8680
        13                          0.3549419               9.6585
        14                          1.1778808              32.0518
      -------------------------------------------------------------
                  HL-Gap            0.1355232 Eh            3.6878 eV

     #   Z        covCN         q      C6AA      Î±(0)
     1   6 C      1.836     0.252    25.336     8.132
     2   6 C      2.834    -0.204    33.385     9.469
     3   8 O      0.856    -0.240    18.731     5.803
     4   1 H      0.926     0.096     1.822     2.111
     5   1 H      0.926     0.096     1.823     2.111

Wiberg/Mayer (AO) data.
largest (>0.10) Wiberg bond orders for each atom
          total WBO             WBO to atom ...

molecular dipole:
                 x           y           z       tot (Debye)
 q only:       -0.691       0.104       0.027
   full:       -0.795       0.119       0.031       2.045

 projected vibrational frequencies (cm-1)
eigval :       -0.00    -0.00     0.00     0.00     0.00     0.00
eigval :      385.65   437.74   678.23   888.63  1198.75  1376.46
eigval :     2306.69  3135.98  3157.14

   temp. (K)  partition function   enthalpy   heat capacity  entropy
                                   cal/mol     cal/K/mol   cal/K/mol   J/K/mol
  10.00  VIB   1.00                    0.000      0.000     -0.001
         ROT   15.0                   29.809      2.981      8.369
         INT   15.0                   29.809      2.981      8.368
         TR   0.162E+25               49.681      4.968     20.259
         TOT                          79.4904     7.9490    28.6272   119.7764

       T/K    H(0)-H(T)+PV         H(T)/Eh          T*S/Eh         G(T)/Eh
   ------------------------------------------------------------------------
    298.15    0.457815E-02    0.354821E-01    0.275571E-01    0.792496E-02
    120.00    0.154908E-02    0.324530E-01    0.928570E-02    0.231673E-01
    100.00    0.127749E-02    0.321814E-01    0.749072E-02    0.246907E-01
     80.00    0.101589E-02    0.319198E-01    0.575927E-02    0.261606E-01
     60.00    0.760281E-03    0.316642E-01    0.409898E-02    0.275652E-01
     40.00    0.506706E-03    0.314106E-01    0.252709E-02    0.288836E-01
     20.00    0.253352E-03    0.311573E-01    0.108798E-02    0.300693E-01
     10.00    0.126676E-03    0.310306E-01    0.456204E-03    0.305744E-01 (used)
   ------------------------------------------------------------------------

         :::::::::::::::::::::::::::::::::::::::::::::::::::::
         ::                  THERMODYNAMIC                  ::
         :::::::::::::::::::::::::::::::::::::::::::::::::::::
         :: total free energy          -9.287612169991 Eh   ::
         ::.................................................::
         :: total energy               -9.318186584677 Eh   ::
         :: zero point energy           0.030903942714 Eh   ::
         :: G(RRHO) w/o ZPVE           -0.000329528028 Eh   ::
         :: G(RRHO) contrib.            0.030574414685 Eh   ::
         :::::::::::::::::::::::::::::::::::::::::::::::::::::

           -------------------------------------------------
          | TOTAL ENERGY               -9.318186584677 Eh   |
          | TOTAL ENTHALPY             -9.287155965947 Eh   |
          | TOTAL FREE ENERGY          -9.287612169991 Eh   |
          | GRADIENT NORM               0.000843365977 Eh/Î± |
          | HOMO-LUMO GAP               3.687774739877 eV   |
           -------------------------------------------------

 * finished run on 2020/05/12 at 11:45:14.073
