   * xtb version 6.2.2 (9d81278992624c895f80dd42a50cac0aa55982e2) compiled by '@Darwin' on 04/03/2020
          program call               : xtb --input H1C3N1_26_S_2.input H1C3N1_26_S_2.xyz --ohess --molden --namespace H1C3N1_26_S_2 output.out
          number of atoms            :                     5
          number of electrons        :                    18
          charge                     :                     0
          spin                       :                   1.0

   ID    Z sym.   atoms
    1    6 C      1-3
    2    7 N      4
    3    1 H      5

          :  Hamiltonian                  GFN2-xTB          :
 * total energy  :    -9.4746043 Eh     change       -0.3731886E-08 Eh
 * total energy  :    -9.4922128 Eh     change       -0.1760848E-01 Eh
 * total energy  :    -9.5032266 Eh     change       -0.1101379E-01 Eh
 * total energy  :    -9.5073479 Eh     change       -0.4121299E-02 Eh
 * total energy  :    -9.5089913 Eh     change       -0.1643401E-02 Eh
 * total energy  :    -9.5100721 Eh     change       -0.1080775E-02 Eh
 * total energy  :    -9.5108185 Eh     change       -0.7464272E-03 Eh
 * total energy  :    -9.5116348 Eh     change       -0.8163301E-03 Eh
 * total energy  :    -9.5125629 Eh     change       -0.9280506E-03 Eh
 * total energy  :    -9.5128675 Eh     change       -0.3046401E-03 Eh
 * total energy  :    -9.5133322 Eh     change       -0.4647370E-03 Eh
 * total energy  :    -9.5135022 Eh     change       -0.1699629E-03 Eh
 * total energy  :    -9.5136195 Eh     change       -0.1172905E-03 Eh
 * total energy  :    -9.5136430 Eh     change       -0.2351967E-04 Eh
 * total energy  :    -9.5136514 Eh     change       -0.8354878E-05 Eh
 * total energy  :    -9.5136573 Eh     change       -0.5905071E-05 Eh
 * total energy  :    -9.5136582 Eh     change       -0.9347825E-06 Eh
   *** GEOMETRY OPTIMIZATION CONVERGED AFTER 17 ITERATIONS ***

 final structure:
================
5
 xtb: 6.2.2 (9d81278992624c895f80dd42a50cac0aa55982e2)
C         0.66165676390954    0.02725652621639    0.11687866052763
C        -0.44994976075761    0.85375303163494   -0.11011124441124
C        -1.54012453351473   -0.03613936992995    0.10174913249460
N        -0.38993698317297   -0.77698864377312   -0.18087030377952
H         1.71835451353577   -0.06788154414826    0.07235475516853

          :  Hamiltonian                  GFN2-xTB          :
         :: gradient norm              0.000350592666 Eh/a0 ::
         :: HOMO-LUMO gap              2.242307476035 eV    ::
         :: SCC energy                -9.634506500243 Eh    ::
         :: -> dispersion             -0.002109818167 Eh    ::
         :: repulsion energy           0.120848295752 Eh    ::

    * Orbital Energies and Occupations

         #    Occupation            Energy/Eh            Energy/eV
      -------------------------------------------------------------
         1        2.0000           -0.7390098             -20.1095
         2        2.0000           -0.6509207             -17.7125
         3        2.0000           -0.6108273             -16.6215
         4        2.0000           -0.5695432             -15.4981
         5        2.0000           -0.5605371             -15.2530
         6        2.0000           -0.5290035             -14.3949
         7        2.0000           -0.4797014             -13.0533
         8        2.0000           -0.4221787             -11.4881
         9        1.0000           -0.3925194             -10.6810
        10        1.0000           -0.3633780              -9.8880 (HOMO)
        11                         -0.2809750              -7.6457 (LUMO)
        12                         -0.2216249              -6.0307
        13                          0.0243009               0.6613
        14                          0.0836149               2.2753
        15                          0.1238911               3.3712
        16                          0.3056445               8.3170
        17                          0.5623062              15.3011
      -------------------------------------------------------------
                  HL-Gap            0.0824030 Eh            2.2423 eV

     #   Z        covCN         q      C6AA      Î±(0)
     1   6 C      2.956     0.054    26.791     8.490
     2   6 C      2.830     0.017    27.611     8.611
     3   6 C      2.027    -0.105    33.903     9.404
     4   7 N      2.690    -0.048    22.168     6.993
     5   1 H      0.927     0.081     1.965     2.192

Wiberg/Mayer (AO) data.
largest (>0.10) Wiberg bond orders for each atom
          total WBO             WBO to atom ...

molecular dipole:
                 x           y           z       tot (Debye)
 q only:        0.657       0.098       0.016
   full:        1.332       0.006      -0.113       3.399

 projected vibrational frequencies (cm-1)
eigval :       -0.00    -0.00    -0.00     0.00     0.00     0.00
eigval :      385.46   449.10   692.71   802.15   942.72  1123.72
eigval :     1275.79  1425.85  3232.89

   temp. (K)  partition function   enthalpy   heat capacity  entropy
                                   cal/mol     cal/K/mol   cal/K/mol   J/K/mol
  10.00  VIB   1.00                    0.000      0.000     -0.001
         ROT   83.7                   29.809      2.981     11.780
         INT   83.7                   29.809      2.981     11.779
         TR   0.217E+25               49.681      4.968     20.838
         TOT                          79.4904     7.9490    32.6165   136.4674

       T/K    H(0)-H(T)+PV         H(T)/Eh          T*S/Eh         G(T)/Eh
   ------------------------------------------------------------------------
    298.15    0.464628E-02    0.281806E-01    0.295313E-01   -0.135067E-02
    120.00    0.154808E-02    0.250824E-01    0.100473E-01    0.150351E-01
    100.00    0.127703E-02    0.248114E-01    0.812591E-02    0.166855E-01
     80.00    0.101577E-02    0.245501E-01    0.626772E-02    0.182824E-01
     60.00    0.760269E-03    0.242946E-01    0.448040E-02    0.198142E-01
     40.00    0.506706E-03    0.240411E-01    0.278138E-02    0.212597E-01
     20.00    0.253352E-03    0.237877E-01    0.121512E-02    0.225726E-01
     10.00    0.126676E-03    0.236610E-01    0.519777E-03    0.231413E-01 (used)
   ------------------------------------------------------------------------

         :::::::::::::::::::::::::::::::::::::::::::::::::::::
         ::                  THERMODYNAMIC                  ::
         :::::::::::::::::::::::::::::::::::::::::::::::::::::
         :: total free energy          -9.490516948273 Eh   ::
         ::.................................................::
         :: total energy               -9.513658205822 Eh   ::
         :: zero point energy           0.023534358511 Eh   ::
         :: G(RRHO) w/o ZPVE           -0.000393100963 Eh   ::
         :: G(RRHO) contrib.            0.023141257549 Eh   ::
         :::::::::::::::::::::::::::::::::::::::::::::::::::::

           -------------------------------------------------
          | TOTAL ENERGY               -9.513658205822 Eh   |
          | TOTAL ENTHALPY             -9.489997171295 Eh   |
          | TOTAL FREE ENERGY          -9.490516948273 Eh   |
          | GRADIENT NORM               0.000350384245 Eh/Î± |
          | HOMO-LUMO GAP               2.242300573916 eV   |
           -------------------------------------------------

 * finished run on 2020/05/12 at 11:45:00.755
