   * xtb version 6.2.2 (9d81278992624c895f80dd42a50cac0aa55982e2) compiled by '@Darwin' on 04/03/2020
          program call               : xtb --input H2C2N1_13_S_3.input H2C2N1_13_S_3.xyz --ohess --molden --namespace H2C2N1_13_S_3 output.out
          number of atoms            :                     5
          number of electrons        :                    15
          charge                     :                     0
          spin                       :                   1.5

   ID    Z sym.   atoms
    1    6 C      1, 3
    2    7 N      2
    3    1 H      4, 5

          :  Hamiltonian                  GFN2-xTB          :
 * total energy  :    -7.7941266 Eh     change       -0.2815689E-08 Eh
 * total energy  :    -7.8003760 Eh     change       -0.6249340E-02 Eh
 * total energy  :    -7.8022622 Eh     change       -0.1886256E-02 Eh
 * total energy  :    -7.8024105 Eh     change       -0.1482625E-03 Eh
 * total energy  :    -7.8024440 Eh     change       -0.3345601E-04 Eh
 * total energy  :    -7.8024533 Eh     change       -0.9352098E-05 Eh
 * total energy  :    -7.8024540 Eh     change       -0.6643087E-06 Eh
   *** GEOMETRY OPTIMIZATION CONVERGED AFTER 7 ITERATIONS ***

 final structure:
================
5
 xtb: 6.2.2 (9d81278992624c895f80dd42a50cac0aa55982e2)
C         0.97784315986244    0.04067567052922    0.78513087347002
N        -0.27741036731890    0.00129436863967   -0.00341735088279
C         0.99644910618636   -0.04988866759941   -0.76083556643846
H        -0.85299618356433   -0.84171644056472    0.03904627490913
H        -0.84388571516557    0.84963506899526   -0.05992523105791

          :  Hamiltonian                  GFN2-xTB          :
         :: gradient norm              0.000308980876 Eh/a0 ::
         :: HOMO-LUMO gap              4.078913594697 eV    ::
         :: SCC energy                -7.866182276628 Eh    ::
         :: -> dispersion             -0.001503641440 Eh    ::
         :: repulsion energy           0.063728281908 Eh    ::

    * Orbital Energies and Occupations

         #    Occupation            Energy/Eh            Energy/eV
      -------------------------------------------------------------
         1        2.0000           -0.6872139             -18.7000
         2        2.0000           -0.6396408             -17.4055
         3        2.0000           -0.5945425             -16.1783
         4        2.0000           -0.5664400             -15.4136
         5        2.0000           -0.4655871             -12.6693
         6        2.0000           -0.4206071             -11.4453
         7        1.0000           -0.3671694              -9.9912
         8        1.0000           -0.3545942              -9.6490
         9        1.0000           -0.2492019              -6.7811 (HOMO)
        10                         -0.0993046              -2.7022 (LUMO)
        11                         -0.0594418              -1.6175
        12                          0.1475017               4.0137
        13                          0.1545677               4.2060
        14                          0.1547594               4.2112
      -------------------------------------------------------------
                  HL-Gap            0.1498973 Eh            4.0789 eV

     #   Z        covCN         q      C6AA      Î±(0)
     1   6 C      1.878    -0.167    35.920     9.680
     2   7 N      3.530    -0.028    21.773     6.930
     3   6 C      1.878    -0.167    35.920     9.680
     4   1 H      0.860     0.181     1.208     1.722
     5   1 H      0.860     0.181     1.208     1.722

Wiberg/Mayer (AO) data.
largest (>0.10) Wiberg bond orders for each atom
          total WBO             WBO to atom ...

molecular dipole:
                 x           y           z       tot (Debye)
 q only:       -1.190       0.006      -0.015
   full:       -2.068       0.010      -0.025       5.257

 projected vibrational frequencies (cm-1)
eigval :       -0.00    -0.00     0.00     0.00     0.00     0.00
eigval :      462.31   657.54   769.20   781.14   872.49  1138.28
eigval :     1395.03  3222.95  3233.87

   temp. (K)  partition function   enthalpy   heat capacity  entropy
                                   cal/mol     cal/K/mol   cal/K/mol   J/K/mol
  10.00  VIB   1.00                    0.000      0.000     -0.000
         ROT   23.2                   29.809      2.981      9.229
         INT   23.2                   29.809      2.981      9.229
         TR   0.151E+25               49.681      4.968     20.115
         TOT                          79.4904     7.9490    29.3433   122.7722

       T/K    H(0)-H(T)+PV         H(T)/Eh          T*S/Eh         G(T)/Eh
   ------------------------------------------------------------------------
    298.15    0.442202E-02    0.329738E-01    0.276181E-01    0.535571E-02
    120.00    0.153029E-02    0.300821E-01    0.939956E-02    0.206826E-01
    100.00    0.126983E-02    0.298217E-01    0.759568E-02    0.222260E-01
     80.00    0.101395E-02    0.295658E-01    0.584826E-02    0.237175E-01
     60.00    0.760089E-03    0.293119E-01    0.416718E-02    0.251447E-01
     40.00    0.506704E-03    0.290585E-01    0.257270E-02    0.264858E-01
     20.00    0.253352E-03    0.288052E-01    0.111079E-02    0.276944E-01
     10.00    0.126676E-03    0.286785E-01    0.467615E-03    0.282109E-01 (used)
   ------------------------------------------------------------------------

         :::::::::::::::::::::::::::::::::::::::::::::::::::::
         ::                  THERMODYNAMIC                  ::
         :::::::::::::::::::::::::::::::::::::::::::::::::::::
         :: total free energy          -7.774243080464 Eh   ::
         ::.................................................::
         :: total energy               -7.802453971383 Eh   ::
         :: zero point energy           0.028551829592 Eh   ::
         :: G(RRHO) w/o ZPVE           -0.000340938673 Eh   ::
         :: G(RRHO) contrib.            0.028210890919 Eh   ::
         :::::::::::::::::::::::::::::::::::::::::::::::::::::

           -------------------------------------------------
          | TOTAL ENERGY               -7.802453971383 Eh   |
          | TOTAL ENTHALPY             -7.773775465775 Eh   |
          | TOTAL FREE ENERGY          -7.774243080464 Eh   |
          | GRADIENT NORM               0.000308990233 Eh/Î± |
          | HOMO-LUMO GAP               4.078913508049 eV   |
           -------------------------------------------------

 * finished run on 2020/05/12 at 11:44:48.877
