   * xtb version 6.2.2 (9d81278992624c895f80dd42a50cac0aa55982e2) compiled by '@Darwin' on 04/03/2020
          program call               : xtb --input C4N1_25_S_3.input C4N1_25_S_3.xyz --ohess --molden --namespace C4N1_25_S_3 output.out
          number of atoms            :                     5
          number of electrons        :                    21
          charge                     :                     0
          spin                       :                   1.5

   ID    Z sym.   atoms
    1    6 C      1, 3-5
    2    7 N      2

          :  Hamiltonian                  GFN2-xTB          :
 * total energy  :   -10.8713940 Eh     change       -0.1539011E-08 Eh
 * total energy  :   -10.8869037 Eh     change       -0.1550977E-01 Eh
 * total energy  :   -10.9063625 Eh     change       -0.1945876E-01 Eh
 * total energy  :   -10.9318104 Eh     change       -0.2544792E-01 Eh
 * total energy  :   -10.9707286 Eh     change       -0.3891822E-01 Eh
 * total energy  :   -10.9713260 Eh     change       -0.5973782E-03 Eh
 * total energy  :   -10.9785443 Eh     change       -0.7218339E-02 Eh
 * total energy  :   -10.9736522 Eh     change        0.4892183E-02 Eh
 * total energy  :   -10.9811555 Eh     change       -0.7503318E-02 Eh
 * total energy  :   -10.9815622 Eh     change       -0.4067489E-03 Eh
 * total energy  :   -10.9822446 Eh     change       -0.4046188E-03 Eh
 * total energy  :   -10.9825018 Eh     change       -0.2572461E-03 Eh
 * total energy  :   -10.9826699 Eh     change       -0.1680898E-03 Eh
 * total energy  :   -10.9827790 Eh     change       -0.1090303E-03 Eh
 * total energy  :   -10.9828785 Eh     change       -0.9951944E-04 Eh
 * total energy  :   -10.9829545 Eh     change       -0.7598292E-04 Eh
 * total energy  :   -10.9830004 Eh     change       -0.4589009E-04 Eh
 * total energy  :   -10.9830205 Eh     change       -0.2011834E-04 Eh
 * total energy  :   -10.9830239 Eh     change       -0.3420270E-05 Eh
   *** GEOMETRY OPTIMIZATION CONVERGED AFTER 20 ITERATIONS ***

 final structure:
================
5
 xtb: 6.2.2 (9d81278992624c895f80dd42a50cac0aa55982e2)
C         1.83341775759778   -0.25894032276481   -0.00949600221995
N         0.62403214226112   -0.08814767122607   -0.00204392372658
C        -1.47905858929305    0.20650492572204    0.10912906599131
C        -0.35911567442639    0.99048196422535   -0.02715724965826
C        -0.61927563613947   -0.84989889595651   -0.07043189038651

          :  Hamiltonian                  GFN2-xTB          :
         :: gradient norm              0.000796963870 Eh/a0 ::
         :: HOMO-LUMO gap              1.140900323793 eV    ::
         :: SCC energy               -11.139883888638 Eh    ::
         :: -> dispersion             -0.002909930034 Eh    ::
         :: repulsion energy           0.156859987027 Eh    ::

    * Orbital Energies and Occupations

         #    Occupation            Energy/Eh            Energy/eV
      -------------------------------------------------------------
         1        2.0000           -0.7459986             -20.2997
         2        2.0000           -0.7151969             -19.4615
         3        2.0000           -0.6456771             -17.5698
         4        2.0000           -0.6301166             -17.1463
         5        2.0000           -0.5928089             -16.1312
         6        2.0000           -0.5759596             -15.6727
         7        2.0000           -0.4940930             -13.4450
         8        2.0000           -0.4811978             -13.0941
         9        2.0000           -0.4680327             -12.7358
        10        1.0000           -0.4177364             -11.3672
        11        1.0000           -0.4061293             -11.0513
        12        1.0000           -0.3666879              -9.9781 (HOMO)
        13                         -0.3247606              -8.8372 (LUMO)
        14                         -0.3145431              -8.5592
        15                         -0.2002123              -5.4481
        16                         -0.0142751              -0.3884
        17                          0.0257148               0.6997
        18                          0.2168854               5.9018
        19                          0.4199480              11.4274
        20                          0.7191875              19.5701
      -------------------------------------------------------------
                  HL-Gap            0.0419274 Eh            1.1409 eV

     #   Z        covCN         q      C6AA      Î±(0)
     1   6 C      0.916    -0.098    38.562    10.395
     2   7 N      2.873     0.164    18.488     6.386
     3   6 C      2.110     0.022    30.295     8.894
     4   6 C      2.648    -0.044    29.066     8.820
     5   6 C      2.648    -0.044    29.066     8.820

Wiberg/Mayer (AO) data.
largest (>0.10) Wiberg bond orders for each atom
          total WBO             WBO to atom ...

molecular dipole:
                 x           y           z       tot (Debye)
 q only:       -0.127       0.018       0.014
   full:       -0.281       0.040       0.006       0.721

 projected vibrational frequencies (cm-1)
eigval :       -0.00    -0.00     0.00     0.00     0.00     0.00
eigval :       67.65   211.84   374.07   406.68   648.83   882.41
eigval :      920.64  1462.26  1716.80

   temp. (K)  partition function   enthalpy   heat capacity  entropy
                                   cal/mol     cal/K/mol   cal/K/mol   J/K/mol
  10.00  VIB   1.00                    0.011      0.011     -0.035
         ROT   192.                   29.809      2.981     13.425
         INT   192.                   29.820      2.992     13.390
         TR   0.290E+25               49.681      4.968     21.419
         TOT                          79.5019     7.9602    34.8097   145.6436

       T/K    H(0)-H(T)+PV         H(T)/Eh          T*S/Eh         G(T)/Eh
   ------------------------------------------------------------------------
    298.15    0.600646E-02    0.212501E-01    0.335054E-01   -0.122553E-01
    120.00    0.188436E-02    0.171280E-01    0.110608E-01    0.606718E-02
    100.00    0.151553E-02    0.167592E-01    0.888728E-02    0.787190E-02
     80.00    0.116831E-02    0.164120E-01    0.680558E-02    0.960638E-02
     60.00    0.842262E-03    0.160859E-01    0.482761E-02    0.112583E-01
     40.00    0.536828E-03    0.157805E-01    0.297391E-02    0.128066E-01
     20.00    0.255744E-03    0.154994E-01    0.129233E-02    0.142071E-01
     10.00    0.126694E-03    0.153703E-01    0.554727E-03    0.148156E-01 (used)
   ------------------------------------------------------------------------

         :::::::::::::::::::::::::::::::::::::::::::::::::::::
         ::                  THERMODYNAMIC                  ::
         :::::::::::::::::::::::::::::::::::::::::::::::::::::
         :: total free energy         -10.968208279641 Eh   ::
         ::.................................................::
         :: total energy              -10.983023891871 Eh   ::
         :: zero point energy           0.015243645304 Eh   ::
         :: G(RRHO) w/o ZPVE           -0.000428033074 Eh   ::
         :: G(RRHO) contrib.            0.014815612230 Eh   ::
         :::::::::::::::::::::::::::::::::::::::::::::::::::::

           -------------------------------------------------
          | TOTAL ENERGY              -10.983023891871 Eh   |
          | TOTAL ENTHALPY            -10.967653552284 Eh   |
          | TOTAL FREE ENERGY         -10.968208279641 Eh   |
          | GRADIENT NORM               0.000797104699 Eh/Î± |
          | HOMO-LUMO GAP               1.140901763215 eV   |
           -------------------------------------------------

 * finished run on 2020/05/12 at 11:44:09.315
