   * xtb version 6.2.2 (9d81278992624c895f80dd42a50cac0aa55982e2) compiled by '@Darwin' on 04/03/2020
          program call               : xtb --input C4N1_2_S_1.input C4N1_2_S_1.xyz --ohess --molden --namespace C4N1_2_S_1 output.out
          number of atoms            :                     5
          number of electrons        :                    21
          charge                     :                     0
          spin                       :                   0.5

   ID    Z sym.   atoms
    1    7 N      1
    2    6 C      2-5

          :  Hamiltonian                  GFN2-xTB          :
 * total energy  :   -10.8411094 Eh     change       -0.2271072E-09 Eh
 * total energy  :   -10.9574954 Eh     change       -0.1163860E+00 Eh
 * total energy  :   -10.8802240 Eh     change        0.7727141E-01 Eh
 * total energy  :   -10.9972007 Eh     change       -0.1169767E+00 Eh
 * total energy  :   -11.0052120 Eh     change       -0.8011274E-02 Eh
 * total energy  :   -11.0109932 Eh     change       -0.5781212E-02 Eh
 * total energy  :   -11.0151063 Eh     change       -0.4113093E-02 Eh
 * total energy  :   -11.0186059 Eh     change       -0.3499593E-02 Eh
 * total energy  :   -11.0385209 Eh     change       -0.1991504E-01 Eh
 * total energy  :   -11.0185326 Eh     change        0.1998831E-01 Eh
 * total energy  :   -11.1195144 Eh     change       -0.5463051E-04 Eh
 * total energy  :   -11.1193473 Eh     change        0.1671066E-03 Eh
 * total energy  :   -11.1195534 Eh     change       -0.2061049E-03 Eh
 * total energy  :   -11.1195888 Eh     change       -0.3536276E-04 Eh
 * total energy  :   -11.1196181 Eh     change       -0.2928328E-04 Eh
 * total energy  :   -11.1196679 Eh     change       -0.4980713E-04 Eh
 * total energy  :   -11.1196825 Eh     change       -0.1461757E-04 Eh
 * total energy  :   -11.1196891 Eh     change       -0.6634760E-05 Eh
 * total energy  :   -11.1196896 Eh     change       -0.5295319E-06 Eh
   *** GEOMETRY OPTIMIZATION CONVERGED AFTER 29 ITERATIONS ***

 final structure:
================
5
 xtb: 6.2.2 (9d81278992624c895f80dd42a50cac0aa55982e2)
N        -1.55286763852356   -0.16068444873385    0.03915171689273
C        -0.25222205194617    0.13404413196925   -0.01762084765033
C         1.02057550114517   -0.21874398363242    0.02349749156994
C        -1.30039619340758    1.12397768426663   -0.15684995685281
C         2.08491038273214   -0.87859438386961    0.11182059604047

          :  Hamiltonian                  GFN2-xTB          :
         :: gradient norm              0.000275457093 Eh/a0 ::
         :: HOMO-LUMO gap              1.930707025064 eV    ::
         :: SCC energy               -11.329089626537 Eh    ::
         :: -> dispersion             -0.002788803283 Eh    ::
         :: repulsion energy           0.209400085962 Eh    ::

    * Orbital Energies and Occupations

         #    Occupation            Energy/Eh            Energy/eV
      -------------------------------------------------------------
         1        2.0000           -0.7578497             -20.6221
         2        2.0000           -0.6897964             -18.7703
         3        2.0000           -0.6488414             -17.6559
         4        2.0000           -0.6206559             -16.8889
         5        2.0000           -0.5910354             -16.0829
         6        2.0000           -0.5683277             -15.4650
         7        2.0000           -0.4993447             -13.5879
         8        2.0000           -0.4866637             -13.2428
         9        2.0000           -0.4602326             -12.5236
        10        2.0000           -0.4538887             -12.3509
        11        1.0000           -0.4299425             -11.6993 (HOMO)
        12                         -0.3589905              -9.7686 (LUMO)
        13                         -0.3268699              -8.8946
        14                         -0.2516291              -6.8472
        15                         -0.1677946              -4.5659
        16                         -0.0425133              -1.1568
        17                          0.0900051               2.4492
        18                          0.3007719               8.1844
        19                          0.5170003              14.0683
        20                          1.1040760              30.0434
      -------------------------------------------------------------
                  HL-Gap            0.0709520 Eh            1.9307 eV

     #   Z        covCN         q      C6AA      Î±(0)
     1   7 N      1.821    -0.079    23.507     7.184
     2   6 C      2.872     0.201    23.727     7.985
     3   6 C      1.962     0.019    30.574     8.929
     4   6 C      1.889    -0.046    32.366     9.188
     5   6 C      0.983    -0.096    38.962    10.485

Wiberg/Mayer (AO) data.
largest (>0.10) Wiberg bond orders for each atom
          total WBO             WBO to atom ...

molecular dipole:
                 x           y           z       tot (Debye)
 q only:       -0.091       0.127      -0.018
   full:       -0.250       0.153      -0.020       0.745

 projected vibrational frequencies (cm-1)
eigval :       -0.00    -0.00    -0.00    -0.00     0.00     0.00
eigval :      155.32   175.07   428.86   491.32   738.52   854.41
eigval :     1226.85  1706.43  1841.21

   temp. (K)  partition function   enthalpy   heat capacity  entropy
                                   cal/mol     cal/K/mol   cal/K/mol   J/K/mol
  10.00  VIB   1.00                    0.000      0.000     -0.018
         ROT   223.                   29.809      2.981     13.729
         INT   223.                   29.809      2.981     13.711
         TR   0.290E+25               49.681      4.968     21.419
         TOT                          79.4904     7.9490    35.1309   146.9876

       T/K    H(0)-H(T)+PV         H(T)/Eh          T*S/Eh         G(T)/Eh
   ------------------------------------------------------------------------
    298.15    0.570526E-02    0.230603E-01    0.328458E-01   -0.978550E-02
    120.00    0.178000E-02    0.191351E-01    0.108766E-01    0.825851E-02
    100.00    0.142756E-02    0.187826E-01    0.874306E-02    0.100396E-01
     80.00    0.109653E-02    0.184516E-01    0.669949E-02    0.117521E-01
     60.00    0.789802E-03    0.181449E-01    0.476042E-02    0.133845E-01
     40.00    0.510838E-03    0.178659E-01    0.294795E-02    0.149180E-01
     20.00    0.253365E-03    0.176084E-01    0.129565E-02    0.163128E-01
     10.00    0.126676E-03    0.174818E-01    0.559846E-03    0.169219E-01 (used)
   ------------------------------------------------------------------------

         :::::::::::::::::::::::::::::::::::::::::::::::::::::
         ::                  THERMODYNAMIC                  ::
         :::::::::::::::::::::::::::::::::::::::::::::::::::::
         :: total free energy         -11.102767738327 Eh   ::
         ::.................................................::
         :: total energy              -11.119689646024 Eh   ::
         :: zero point energy           0.017355077786 Eh   ::
         :: G(RRHO) w/o ZPVE           -0.000433170090 Eh   ::
         :: G(RRHO) contrib.            0.016921907696 Eh   ::
         :::::::::::::::::::::::::::::::::::::::::::::::::::::

           -------------------------------------------------
          | TOTAL ENERGY              -11.119689646024 Eh   |
          | TOTAL ENTHALPY            -11.102207892222 Eh   |
          | TOTAL FREE ENERGY         -11.102767738327 Eh   |
          | GRADIENT NORM               0.000276036174 Eh/Î± |
          | HOMO-LUMO GAP               1.930702929680 eV   |
           -------------------------------------------------

 * finished run on 2020/05/12 at 11:43:57.657
