   * xtb version 6.2.2 (9d81278992624c895f80dd42a50cac0aa55982e2) compiled by '@Darwin' on 04/03/2020
          program call               : xtb --input C3O1_0_S_2.input C3O1_0_S_2.xyz --ohess --molden --namespace C3O1_0_S_2 output.out
          number of atoms            :                     4
          number of electrons        :                    18
          charge                     :                     0
          spin                       :                   1.0

   ID    Z sym.   atoms
    1    6 C      1-3
    2    8 O      4

          :  Hamiltonian                  GFN2-xTB          :
 * total energy  :    -9.9680565 Eh     change       -0.1476597E-09 Eh
 * total energy  :   -10.0263134 Eh     change       -0.5825696E-01 Eh
 * total energy  :   -10.0882972 Eh     change       -0.6198373E-01 Eh
 * total energy  :   -10.1832954 Eh     change       -0.9499824E-01 Eh
 * total energy  :   -10.1760554 Eh     change        0.7240010E-02 Eh
 * total energy  :   -10.1964167 Eh     change       -0.2036132E-01 Eh
 * total energy  :   -10.1909232 Eh     change        0.5493469E-02 Eh
 * total energy  :   -10.1992656 Eh     change       -0.8342405E-02 Eh
 * total energy  :   -10.1993350 Eh     change       -0.6939491E-04 Eh
 * total energy  :   -10.1999333 Eh     change       -0.5983106E-03 Eh
 * total energy  :   -10.1999341 Eh     change       -0.7486280E-06 Eh
 * total energy  :   -10.1999347 Eh     change       -0.5700943E-06 Eh
   *** GEOMETRY OPTIMIZATION CONVERGED AFTER 12 ITERATIONS ***

 final structure:
================
4
 xtb: 6.2.2 (9d81278992624c895f80dd42a50cac0aa55982e2)
C        -0.89556021559119    0.72259875776049   -0.03931465056711
C         0.35172759916070   -0.02248231516830    0.01543100915810
C        -0.98017953098955   -0.60269719387546   -0.04149165506827
O         1.52401214742005   -0.09741924871673    0.06537529647729

          :  Hamiltonian                  GFN2-xTB          :
         :: gradient norm              0.000104523444 Eh/a0 ::
         :: HOMO-LUMO gap              2.892521944307 eV    ::
         :: SCC energy               -10.341967415490 Eh    ::
         :: -> dispersion             -0.001620120403 Eh    ::
         :: repulsion energy           0.142032743294 Eh    ::

    * Orbital Energies and Occupations

         #    Occupation            Energy/Eh            Energy/eV
      -------------------------------------------------------------
         1        2.0000           -0.7837508             -21.3269
         2        2.0000           -0.7336528             -19.9637
         3        2.0000           -0.6319462             -17.1961
         4        2.0000           -0.6286119             -17.1054
         5        2.0000           -0.6133719             -16.6907
         6        2.0000           -0.5468629             -14.8809
         7        2.0000           -0.5282290             -14.3738
         8        2.0000           -0.4946823             -13.4610
         9        1.0000           -0.4249502             -11.5635
        10        1.0000           -0.3906763             -10.6308 (HOMO)
        11                         -0.2843781              -7.7383 (LUMO)
        12                         -0.2622288              -7.1356
        13                         -0.0224321              -0.6104
        14                          0.0760124               2.0684
        15                          0.4874855              13.2652
        16                          0.8183733              22.2691
      -------------------------------------------------------------
                  HL-Gap            0.1062982 Eh            2.8925 eV

     #   Z        covCN         q      C6AA      Î±(0)
     1   6 C      1.960    -0.038    32.094     9.149
     2   6 C      2.814     0.309    21.760     7.643
     3   6 C      1.960    -0.038    32.094     9.149
     4   8 O      0.856    -0.233    18.606     5.783

Wiberg/Mayer (AO) data.
largest (>0.10) Wiberg bond orders for each atom
          total WBO             WBO to atom ...

molecular dipole:
                 x           y           z       tot (Debye)
 q only:       -0.329       0.021      -0.014
   full:       -0.191       0.012      -0.008       0.488

 projected vibrational frequencies (cm-1)
eigval :       -0.00    -0.00     0.00     0.00     0.00     0.00
eigval :      427.53   496.41   837.60   921.71  1639.46  2071.19

   temp. (K)  partition function   enthalpy   heat capacity  entropy
                                   cal/mol     cal/K/mol   cal/K/mol   J/K/mol
  10.00  VIB   1.00                    0.000      0.000     -0.001
         ROT   49.2                   29.809      2.981     10.725
         INT   49.2                   29.809      2.981     10.724
         TR   0.223E+25               49.681      4.968     20.895
         TOT                          79.4904     7.9490    31.6189   132.2936

       T/K    H(0)-H(T)+PV         H(T)/Eh          T*S/Eh         G(T)/Eh
   ------------------------------------------------------------------------
    298.15    0.440829E-02    0.189747E-01    0.287203E-01   -0.974559E-02
    120.00    0.153788E-02    0.161043E-01    0.984393E-02    0.626035E-02
    100.00    0.127274E-02    0.158391E-01    0.796175E-02    0.787739E-02
     80.00    0.101460E-02    0.155810E-01    0.613914E-02    0.944186E-02
     60.00    0.760140E-03    0.153265E-01    0.438484E-02    0.109417E-01
     40.00    0.506705E-03    0.150731E-01    0.271777E-02    0.123553E-01
     20.00    0.253352E-03    0.148198E-01    0.118332E-02    0.136364E-01
     10.00    0.126676E-03    0.146931E-01    0.503880E-03    0.141892E-01 (used)
   ------------------------------------------------------------------------

         :::::::::::::::::::::::::::::::::::::::::::::::::::::
         ::                  THERMODYNAMIC                  ::
         :::::::::::::::::::::::::::::::::::::::::::::::::::::
         :: total free energy         -10.185745468548 Eh   ::
         ::.................................................::
         :: total energy              -10.199934665380 Eh   ::
         :: zero point energy           0.014566400455 Eh   ::
         :: G(RRHO) w/o ZPVE           -0.000377203624 Eh   ::
         :: G(RRHO) contrib.            0.014189196831 Eh   ::
         :::::::::::::::::::::::::::::::::::::::::::::::::::::

           -------------------------------------------------
          | TOTAL ENERGY              -10.199934665380 Eh   |
          | TOTAL ENTHALPY            -10.185241588909 Eh   |
          | TOTAL FREE ENERGY         -10.185745468548 Eh   |
          | GRADIENT NORM               0.000104503283 Eh/Î± |
          | HOMO-LUMO GAP               2.892521272120 eV   |
           -------------------------------------------------

 * finished run on 2020/05/12 at 11:45:17.499
