   * xtb version 6.2.2 (9d81278992624c895f80dd42a50cac0aa55982e2) compiled by '@Darwin' on 04/03/2020
          program call               : xtb --input C4N1_35_S_3.input C4N1_35_S_3.xyz --ohess --molden --namespace C4N1_35_S_3 output.out
          number of atoms            :                     5
          number of electrons        :                    21
          charge                     :                     0
          spin                       :                   1.5

   ID    Z sym.   atoms
    1    6 C      1, 2, 4, 5
    2    7 N      3

          :  Hamiltonian                  GFN2-xTB          :
 * total energy  :   -10.8767620 Eh     change       -0.9170886E-09 Eh
 * total energy  :   -10.8993322 Eh     change       -0.2257019E-01 Eh
 * total energy  :   -10.9101248 Eh     change       -0.1079258E-01 Eh
 * total energy  :   -10.9283961 Eh     change       -0.1827128E-01 Eh
 * total energy  :   -10.9467689 Eh     change       -0.1837288E-01 Eh
 * total energy  :   -10.9625157 Eh     change       -0.1574679E-01 Eh
 * total energy  :   -10.9690708 Eh     change       -0.6555066E-02 Eh
 * total energy  :   -10.9743600 Eh     change       -0.5289162E-02 Eh
 * total energy  :   -10.9807289 Eh     change       -0.6368956E-02 Eh
 * total energy  :   -10.9824951 Eh     change       -0.1766218E-02 Eh
 * total energy  :   -10.9828054 Eh     change       -0.3102671E-03 Eh
 * total energy  :   -10.9829864 Eh     change       -0.1809925E-03 Eh
 * total energy  :   -10.9830216 Eh     change       -0.3520300E-04 Eh
 * total energy  :   -10.9830245 Eh     change       -0.2878964E-05 Eh
   *** GEOMETRY OPTIMIZATION CONVERGED AFTER 14 ITERATIONS ***

 final structure:
================
5
 xtb: 6.2.2 (9d81278992624c895f80dd42a50cac0aa55982e2)
C        -1.49683505040141   -0.00697554353722   -0.02132345614878
C        -0.47591534496639   -0.35510853509311   -0.87165113529538
N         0.62922850805306    0.04426523977359   -0.00369776318667
C        -0.50380191707447    0.18994154984933    0.90690715299562
C         1.84732280438922    0.12787728900741   -0.01023379836480

          :  Hamiltonian                  GFN2-xTB          :
         :: gradient norm              0.000367303324 Eh/a0 ::
         :: HOMO-LUMO gap              1.136232136450 eV    ::
         :: SCC energy               -11.140031643163 Eh    ::
         :: -> dispersion             -0.002909907065 Eh    ::
         :: repulsion energy           0.157007154074 Eh    ::

    * Orbital Energies and Occupations

         #    Occupation            Energy/Eh            Energy/eV
      -------------------------------------------------------------
         1        2.0000           -0.7458196             -20.2948
         2        2.0000           -0.7152203             -19.4621
         3        2.0000           -0.6455472             -17.5662
         4        2.0000           -0.6300497             -17.1445
         5        2.0000           -0.5926883             -16.1279
         6        2.0000           -0.5760149             -15.6742
         7        2.0000           -0.4941524             -13.4466
         8        2.0000           -0.4812857             -13.0964
         9        2.0000           -0.4680425             -12.7361
        10        1.0000           -0.4176388             -11.3645
        11        1.0000           -0.4062370             -11.0543
        12        1.0000           -0.3666927              -9.9782 (HOMO)
        13                         -0.3249372              -8.8420 (LUMO)
        14                         -0.3143899              -8.5550
        15                         -0.2001742              -5.4470
        16                         -0.0154907              -0.4215
        17                          0.0244574               0.6655
        18                          0.2178414               5.9278
        19                          0.4210434              11.4572
        20                          0.7198192              19.5873
      -------------------------------------------------------------
                  HL-Gap            0.0417554 Eh            1.1362 eV

     #   Z        covCN         q      C6AA      Î±(0)
     1   6 C      2.109     0.022    30.289     8.893
     2   6 C      2.646    -0.044    29.071     8.821
     3   7 N      2.873     0.164    18.492     6.387
     4   6 C      2.646    -0.044    29.071     8.821
     5   6 C      0.916    -0.098    38.549    10.393

Wiberg/Mayer (AO) data.
largest (>0.10) Wiberg bond orders for each atom
          total WBO             WBO to atom ...

molecular dipole:
                 x           y           z       tot (Debye)
 q only:       -0.128       0.003      -0.003
   full:       -0.283      -0.016       0.000       0.720

 projected vibrational frequencies (cm-1)
eigval :       -0.00    -0.00    -0.00    -0.00     0.00     0.00
eigval :       18.24   211.47   373.24   405.86   648.35   878.47
eigval :      922.63  1463.40  1719.06

   temp. (K)  partition function   enthalpy   heat capacity  entropy
                                   cal/mol     cal/K/mol   cal/K/mol   J/K/mol
  10.00  VIB   1.08                    4.074      1.153      1.143
         ROT   192.                   29.809      2.981     13.427
         INT   207.                   33.883      4.134     14.570
         TR   0.290E+25               49.681      4.968     21.419
         TOT                          83.5648     9.1020    35.9892   150.5790

       T/K    H(0)-H(T)+PV         H(T)/Eh          T*S/Eh         G(T)/Eh
   ------------------------------------------------------------------------
    298.15    0.611415E-02    0.212428E-01    0.337856E-01   -0.125428E-01
    120.00    0.197836E-02    0.171071E-01    0.112958E-01    0.581131E-02
    100.00    0.160561E-02    0.167343E-01    0.910177E-02    0.763254E-02
     80.00    0.125279E-02    0.163815E-01    0.699423E-02    0.938726E-02
     60.00    0.917944E-03    0.160466E-01    0.498324E-02    0.110634E-01
     40.00    0.596813E-03    0.157255E-01    0.308603E-02    0.126395E-01
     20.00    0.283968E-03    0.154127E-01    0.134483E-02    0.140678E-01
     10.00    0.133169E-03    0.152619E-01    0.573525E-03    0.146883E-01 (used)
   ------------------------------------------------------------------------

         :::::::::::::::::::::::::::::::::::::::::::::::::::::
         ::                  THERMODYNAMIC                  ::
         :::::::::::::::::::::::::::::::::::::::::::::::::::::
         :: total free energy         -10.968336133453 Eh   ::
         ::.................................................::
         :: total energy              -10.983024478806 Eh   ::
         :: zero point energy           0.015128701376 Eh   ::
         :: G(RRHO) w/o ZPVE           -0.000440356024 Eh   ::
         :: G(RRHO) contrib.            0.014688345353 Eh   ::
         :::::::::::::::::::::::::::::::::::::::::::::::::::::

           -------------------------------------------------
          | TOTAL ENERGY              -10.983024478806 Eh   |
          | TOTAL ENTHALPY            -10.967762608416 Eh   |
          | TOTAL FREE ENERGY         -10.968336133453 Eh   |
          | GRADIENT NORM               0.000368074163 Eh/Î± |
          | HOMO-LUMO GAP               1.136223470524 eV   |
           -------------------------------------------------

 * finished run on 2020/05/12 at 11:44:14.067
