   * xtb version 6.2.2 (9d81278992624c895f80dd42a50cac0aa55982e2) compiled by '@Darwin' on 04/03/2020
          program call               : xtb --input H1C4_8_S_1.input H1C4_8_S_1.xyz --ohess --molden --namespace H1C4_8_S_1 output.out
          number of atoms            :                     5
          number of electrons        :                    17
          charge                     :                     0
          spin                       :                   0.5

   ID    Z sym.   atoms
    1    6 C      1-4
    2    1 H      5

          :  Hamiltonian                  GFN2-xTB          :
 * total energy  :    -8.6496806 Eh     change       -0.1742784E-10 Eh
 * total energy  :    -8.6871172 Eh     change       -0.3743664E-01 Eh
 * total energy  :    -8.7059339 Eh     change       -0.1881665E-01 Eh
 * total energy  :    -8.7090174 Eh     change       -0.3083520E-02 Eh
 * total energy  :    -8.7100272 Eh     change       -0.1009828E-02 Eh
 * total energy  :    -8.7102095 Eh     change       -0.1822557E-03 Eh
 * total energy  :    -8.7105822 Eh     change       -0.3727031E-03 Eh
 * total energy  :    -8.7109324 Eh     change       -0.3502351E-03 Eh
 * total energy  :    -8.7111482 Eh     change       -0.2157453E-03 Eh
 * total energy  :    -8.7112166 Eh     change       -0.6848993E-04 Eh
 * total energy  :    -8.7123663 Eh     change       -0.1955625E-01 Eh
 * total energy  :    -8.7137952 Eh     change       -0.1428842E-02 Eh
 * total energy  :    -8.7142525 Eh     change       -0.4573670E-03 Eh
 * total energy  :    -8.7143107 Eh     change       -0.5817208E-04 Eh
 * total energy  :    -8.7143715 Eh     change       -0.6080750E-04 Eh
 * total energy  :    -8.7143783 Eh     change       -0.6791015E-05 Eh
 * total energy  :    -8.7143834 Eh     change       -0.5085205E-05 Eh
 * total energy  :    -8.7143867 Eh     change       -0.3257313E-05 Eh
 * total energy  :    -8.7143892 Eh     change       -0.2521431E-05 Eh
   *** GEOMETRY OPTIMIZATION CONVERGED AFTER 29 ITERATIONS ***

 final structure:
================
5
 xtb: 6.2.2 (9d81278992624c895f80dd42a50cac0aa55982e2)
C        -0.70599555440298   -0.03580376607536    0.07397550369468
C         0.37154073042288   -0.84472858547771   -0.02147647017808
C         1.62649728586359    0.07260652004980   -0.16983948319980
C         0.46940385791670    0.78308496861355   -0.06223058038963
H        -1.76144631980019    0.02484086288972    0.17957103007283

          :  Hamiltonian                  GFN2-xTB          :
         :: gradient norm              0.000186410981 Eh/a0 ::
         :: HOMO-LUMO gap              1.589251961508 eV    ::
         :: SCC energy                -8.860668991893 Eh    ::
         :: -> dispersion             -0.002149587147 Eh    ::
         :: repulsion energy           0.146279824363 Eh    ::

    * Orbital Energies and Occupations

         #    Occupation            Energy/Eh            Energy/eV
      -------------------------------------------------------------
         1        2.0000           -0.7147858             -19.4503
         2        2.0000           -0.6371952             -17.3390
         3        2.0000           -0.5872648             -15.9803
         4        2.0000           -0.5591365             -15.2149
         5        2.0000           -0.5278678             -14.3640
         6        2.0000           -0.5063261             -13.7778
         7        2.0000           -0.4386036             -11.9350
         8        2.0000           -0.4087090             -11.1215
         9        1.0000           -0.3766978             -10.2505 (HOMO)
        10                         -0.3182940              -8.6612 (LUMO)
        11                         -0.2661224              -7.2416
        12                         -0.1954122              -5.3174
        13                          0.0198699               0.5407
        14                          0.0790573               2.1513
        15                          0.1793910               4.8815
        16                          0.4252302              11.5711
        17                          0.6146188              16.7246
      -------------------------------------------------------------
                  HL-Gap            0.0584039 Eh            1.5892 eV

     #   Z        covCN         q      C6AA      Î±(0)
     1   6 C      2.919     0.036    27.193     8.551
     2   6 C      2.908    -0.010    28.278     8.720
     3   6 C      1.983    -0.131    34.721     9.516
     4   6 C      2.916     0.023    27.496     8.599
     5   1 H      0.927     0.082     1.954     2.186

Wiberg/Mayer (AO) data.
largest (>0.10) Wiberg bond orders for each atom
          total WBO             WBO to atom ...

molecular dipole:
                 x           y           z       tot (Debye)
 q only:       -0.711       0.034       0.073
   full:       -1.455       0.159       0.148       3.738

 projected vibrational frequencies (cm-1)
eigval :       -0.00    -0.00    -0.00     0.00     0.00     0.00
eigval :      221.48   399.22   584.61   680.22   920.02  1031.39
eigval :     1435.87  1509.08  3237.10

   temp. (K)  partition function   enthalpy   heat capacity  entropy
                                   cal/mol     cal/K/mol   cal/K/mol   J/K/mol
  10.00  VIB   1.00                    0.000      0.000     -0.004
         ROT   84.6                   29.809      2.981     11.799
         INT   84.6                   29.809      2.981     11.795
         TR   0.204E+25               49.681      4.968     20.719
         TOT                          79.4904     7.9490    32.5141   136.0391

       T/K    H(0)-H(T)+PV         H(T)/Eh          T*S/Eh         G(T)/Eh
   ------------------------------------------------------------------------
    298.15    0.499813E-02    0.278231E-01    0.301498E-01   -0.232669E-02
    120.00    0.161506E-02    0.244400E-01    0.101213E-01    0.143187E-01
    100.00    0.131687E-02    0.241418E-01    0.816288E-02    0.159789E-01
     80.00    0.103403E-02    0.238590E-01    0.627815E-02    0.175808E-01
     60.00    0.765192E-03    0.235901E-01    0.447687E-02    0.191133E-01
     40.00    0.507055E-03    0.233320E-01    0.277546E-02    0.205565E-01
     20.00    0.253352E-03    0.230783E-01    0.121191E-02    0.218664E-01
     10.00    0.126676E-03    0.229516E-01    0.518146E-03    0.224335E-01 (used)
   ------------------------------------------------------------------------

         :::::::::::::::::::::::::::::::::::::::::::::::::::::
         ::                  THERMODYNAMIC                  ::
         :::::::::::::::::::::::::::::::::::::::::::::::::::::
         :: total free energy          -8.691955707599 Eh   ::
         ::.................................................::
         :: total energy               -8.714389178372 Eh   ::
         :: zero point energy           0.022824940405 Eh   ::
         :: G(RRHO) w/o ZPVE           -0.000391469633 Eh   ::
         :: G(RRHO) contrib.            0.022433470772 Eh   ::
         :::::::::::::::::::::::::::::::::::::::::::::::::::::

           -------------------------------------------------
          | TOTAL ENERGY               -8.714389178372 Eh   |
          | TOTAL ENTHALPY             -8.691437561951 Eh   |
          | TOTAL FREE ENERGY          -8.691955707599 Eh   |
          | GRADIENT NORM               0.000186758932 Eh/Î± |
          | HOMO-LUMO GAP               1.589249715084 eV   |
           -------------------------------------------------

 * finished run on 2020/05/12 at 11:45:11.325
