   * xtb version 6.2.2 (9d81278992624c895f80dd42a50cac0aa55982e2) compiled by '@Darwin' on 04/03/2020
          program call               : xtb --input H2C2O1_0_S_0.input H2C2O1_0_S_0.xyz --ohess --molden --namespace H2C2O1_0_S_0 output.out
          number of atoms            :                     5
          number of electrons        :                    16
          charge                     :                     0
          spin                       :                   0.0

   ID    Z sym.   atoms
    1    6 C      1, 2
    2    8 O      3
    3    1 H      4, 5

          :  Hamiltonian                  GFN2-xTB          :
 * total energy  :    -9.0618913 Eh     change       -0.6415668E-10 Eh
 * total energy  :    -9.0832729 Eh     change       -0.2138163E-01 Eh
 * total energy  :    -9.1642969 Eh     change       -0.8102394E-01 Eh
 * total energy  :    -9.0234129 Eh     change        0.1408840E+00 Eh
 * total energy  :    -9.2171625 Eh     change       -0.1937496E+00 Eh
 * total energy  :    -9.2227278 Eh     change       -0.5565345E-02 Eh
 * total energy  :    -9.2255568 Eh     change       -0.2829001E-02 Eh
 * total energy  :    -9.2270242 Eh     change       -0.1467402E-02 Eh
 * total energy  :    -9.2273510 Eh     change       -0.3267507E-03 Eh
 * total energy  :    -9.2273730 Eh     change       -0.2204890E-04 Eh
 * total energy  :    -9.2273906 Eh     change       -0.1750974E-04 Eh
 * total energy  :    -9.2273946 Eh     change       -0.4074383E-05 Eh
   *** GEOMETRY OPTIMIZATION CONVERGED AFTER 12 ITERATIONS ***

 final structure:
================
5
 xtb: 6.2.2 (9d81278992624c895f80dd42a50cac0aa55982e2)
C        -0.03087971182757   -0.30085963243919    0.03966067247965
C         0.89443978467910    0.83059567553262   -0.15756934854427
O        -0.34754685501505    1.08773527922290   -0.11610669438638
H        -0.20367531794573   -0.69376550066099    1.03145740963792
H        -0.31233789989074   -0.92370482165534   -0.79744103918692

          :  Hamiltonian                  GFN2-xTB          :
         :: gradient norm              0.000635274384 Eh/a0 ::
         :: HOMO-LUMO gap              3.389262577369 eV    ::
         :: SCC energy                -9.311499207489 Eh    ::
         :: -> dispersion             -0.001342958470 Eh    ::
         :: repulsion energy           0.084104561578 Eh    ::

    * Orbital Energies and Occupations

         #    Occupation            Energy/Eh            Energy/eV
      -------------------------------------------------------------
         1        2.0000           -0.7746468             -21.0792
         2        2.0000           -0.6633867             -18.0517
         3        2.0000           -0.6453578             -17.5611
         4        2.0000           -0.6021566             -16.3855
         5        2.0000           -0.5649526             -15.3731
         6        2.0000           -0.4881448             -13.2831
         7        2.0000           -0.4850220             -13.1981
         8        2.0000           -0.4312835             -11.7358 (HOMO)
         9                         -0.3067304              -8.3466 (LUMO)
        10                         -0.1012767              -2.7559
        11                          0.0623374               1.6963
        12                          0.1658503               4.5130
        13                          0.2450885               6.6692
        14                          0.3941582              10.7256
      -------------------------------------------------------------
                  HL-Gap            0.1245531 Eh            3.3893 eV

     #   Z        covCN         q      C6AA      Î±(0)
     1   6 C      3.677     0.054    19.880     6.388
     2   6 C      1.833    -0.021    31.725     9.100
     3   8 O      1.703    -0.133    16.307     5.452
     4   1 H      0.926     0.050     2.324     2.384
     5   1 H      0.926     0.050     2.324     2.384

Wiberg/Mayer (AO) data.
largest (>0.10) Wiberg bond orders for each atom
          total WBO             WBO to atom ...

molecular dipole:
                 x           y           z       tot (Debye)
 q only:       -0.000      -0.488       0.061
   full:       -0.559      -0.591       0.107       2.085
Molecule has the following symmetry elements: (sigma)
It seems to be the Cs point group

 projected vibrational frequencies (cm-1)
eigval :       -0.00    -0.00    -0.00     0.00     0.00     0.00
eigval :      883.45   942.28   968.47  1096.54  1119.98  1402.11
eigval :     1570.12  3077.32  3096.34

   temp. (K)  partition function   enthalpy   heat capacity  entropy
                                   cal/mol     cal/K/mol   cal/K/mol   J/K/mol
  10.00  VIB   1.00                    0.000      0.000     -0.000
         ROT   41.0                   29.809      2.981     10.361
         INT   41.0                   29.809      2.981     10.361
         TR   0.162E+25               49.681      4.968     20.259
         TOT                          79.4904     7.9490    30.6202   128.1149

       T/K    H(0)-H(T)+PV         H(T)/Eh          T*S/Eh         G(T)/Eh
   ------------------------------------------------------------------------
    298.15    0.398127E-02    0.362324E-01    0.276145E-01    0.861789E-02
    120.00    0.152032E-02    0.337715E-01    0.963200E-02    0.241395E-01
    100.00    0.126678E-02    0.335179E-01    0.779561E-02    0.257223E-01
     80.00    0.101341E-02    0.332646E-01    0.601040E-02    0.272542E-01
     60.00    0.760056E-03    0.330112E-01    0.428921E-02    0.287220E-01
     40.00    0.506704E-03    0.327579E-01    0.265409E-02    0.301038E-01
     20.00    0.253352E-03    0.325045E-01    0.115149E-02    0.313530E-01
     10.00    0.126676E-03    0.323778E-01    0.487964E-03    0.318899E-01 (used)
   ------------------------------------------------------------------------

         :::::::::::::::::::::::::::::::::::::::::::::::::::::
         ::                  THERMODYNAMIC                  ::
         :::::::::::::::::::::::::::::::::::::::::::::::::::::
         :: total free energy          -9.195504753925 Eh   ::
         ::.................................................::
         :: total energy               -9.227394626936 Eh   ::
         :: zero point energy           0.032251161057 Eh   ::
         :: G(RRHO) w/o ZPVE           -0.000361288045 Eh   ::
         :: G(RRHO) contrib.            0.031889873012 Eh   ::
         :::::::::::::::::::::::::::::::::::::::::::::::::::::

           -------------------------------------------------
          | TOTAL ENERGY               -9.227394626936 Eh   |
          | TOTAL ENTHALPY             -9.195016789864 Eh   |
          | TOTAL FREE ENERGY          -9.195504753925 Eh   |
          | GRADIENT NORM               0.000635299650 Eh/Î± |
          | HOMO-LUMO GAP               3.389262402682 eV   |
           -------------------------------------------------

 * finished run on 2020/05/12 at 11:45:13.040
