   * xtb version 6.2.2 (9d81278992624c895f80dd42a50cac0aa55982e2) compiled by '@Darwin' on 04/03/2020
          program call               : xtb --input H2C2O1_6_S_2.input H2C2O1_6_S_2.xyz --ohess --molden --namespace H2C2O1_6_S_2 output.out
          number of atoms            :                     5
          number of electrons        :                    16
          charge                     :                     0
          spin                       :                   1.0

   ID    Z sym.   atoms
    1    8 O      1
    2    6 C      2, 3
    3    1 H      4, 5

          :  Hamiltonian                  GFN2-xTB          :
 * total energy  :    -9.0508469 Eh     change       -0.1766438E-08 Eh
 * total energy  :    -9.0819896 Eh     change       -0.3114261E-01 Eh
 * total energy  :    -9.0928699 Eh     change       -0.1088032E-01 Eh
 * total energy  :    -9.0941731 Eh     change       -0.1303243E-02 Eh
 * total energy  :    -9.0943449 Eh     change       -0.1717542E-03 Eh
 * total energy  :    -9.0943824 Eh     change       -0.3753119E-04 Eh
 * total energy  :    -9.0943835 Eh     change       -0.1144214E-05 Eh
   *** GEOMETRY OPTIMIZATION CONVERGED AFTER 7 ITERATIONS ***

 final structure:
================
5
 xtb: 6.2.2 (9d81278992624c895f80dd42a50cac0aa55982e2)
O         0.01602601255739   -0.00042600356797    0.50646478691931
C        -1.24225374277512    0.07929145951341    0.27889061761760
C         1.06930457990085   -0.07454471681137   -0.21915476903689
H        -1.81917698435979    0.12412856739797    1.20564288935239
H         1.97610013467667   -0.12844930653203    0.38791747514758

          :  Hamiltonian                  GFN2-xTB          :
         :: gradient norm              0.000369899010 Eh/a0 ::
         :: HOMO-LUMO gap              2.324484770249 eV    ::
         :: SCC energy                -9.168482771760 Eh    ::
         :: -> dispersion             -0.001403088823 Eh    ::
         :: repulsion energy           0.074099284836 Eh    ::

    * Orbital Energies and Occupations

         #    Occupation            Energy/Eh            Energy/eV
      -------------------------------------------------------------
         1        2.0000           -0.7727795             -21.0284
         2        2.0000           -0.7099334             -19.3183
         3        2.0000           -0.6184854             -16.8298
         4        2.0000           -0.6024043             -16.3923
         5        2.0000           -0.5503462             -14.9757
         6        2.0000           -0.5128989             -13.9567
         7        2.0000           -0.4020036             -10.9391
         8        1.0000           -0.3556598              -9.6780
         9        1.0000           -0.3287578              -8.9460 (HOMO)
        10                         -0.2433345              -6.6215 (LUMO)
        11                          0.1050023               2.8573
        12                          0.1792275               4.8770
        13                          0.2269407               6.1754
        14                          0.5300393              14.4231
      -------------------------------------------------------------
                  HL-Gap            0.0854233 Eh            2.3245 eV

     #   Z        covCN         q      C6AA      Î±(0)
     1   8 O      1.710     0.003    14.438     5.130
     2   6 C      1.804    -0.063    32.904     9.270
     3   6 C      1.804    -0.063    32.904     9.270
     4   1 H      0.924     0.061     2.186     2.312
     5   1 H      0.924     0.061     2.186     2.312

Wiberg/Mayer (AO) data.
largest (>0.10) Wiberg bond orders for each atom
          total WBO             WBO to atom ...

molecular dipole:
                 x           y           z       tot (Debye)
 q only:        0.039      -0.001       0.180
   full:        0.184      -0.005       0.854       2.221

 projected vibrational frequencies (cm-1)
eigval :       -0.00    -0.00    -0.00    -0.00     0.00     0.00
eigval :      452.62   485.01   764.44  1010.29  1079.63  1287.66
eigval :     1384.94  2888.08  2901.92

   temp. (K)  partition function   enthalpy   heat capacity  entropy
                                   cal/mol     cal/K/mol   cal/K/mol   J/K/mol
  10.00  VIB   1.00                    0.000      0.000     -0.001
         ROT   17.2                   29.809      2.981      8.640
         INT   17.2                   29.809      2.981      8.639
         TR   0.162E+25               49.681      4.968     20.259
         TOT                          79.4904     7.9490    28.8982   120.9101

       T/K    H(0)-H(T)+PV         H(T)/Eh          T*S/Eh         G(T)/Eh
   ------------------------------------------------------------------------
    298.15    0.444531E-02    0.323633E-01    0.274656E-01    0.489777E-02
    120.00    0.153623E-02    0.294543E-01    0.932156E-02    0.201327E-01
    100.00    0.127195E-02    0.291900E-01    0.752722E-02    0.216628E-01
     80.00    0.101437E-02    0.289324E-01    0.579202E-02    0.231404E-01
     60.00    0.760116E-03    0.286781E-01    0.412467E-02    0.245535E-01
     40.00    0.506704E-03    0.284247E-01    0.254434E-02    0.258804E-01
     20.00    0.253352E-03    0.281714E-01    0.109661E-02    0.270748E-01
     10.00    0.126676E-03    0.280447E-01    0.460522E-03    0.275842E-01 (used)
   ------------------------------------------------------------------------

         :::::::::::::::::::::::::::::::::::::::::::::::::::::
         ::                  THERMODYNAMIC                  ::
         :::::::::::::::::::::::::::::::::::::::::::::::::::::
         :: total free energy          -9.066799367637 Eh   ::
         ::.................................................::
         :: total energy               -9.094383545444 Eh   ::
         :: zero point energy           0.027918023995 Eh   ::
         :: G(RRHO) w/o ZPVE           -0.000333846187 Eh   ::
         :: G(RRHO) contrib.            0.027584177807 Eh   ::
         :::::::::::::::::::::::::::::::::::::::::::::::::::::

           -------------------------------------------------
          | TOTAL ENERGY               -9.094383545444 Eh   |
          | TOTAL ENTHALPY             -9.066338845434 Eh   |
          | TOTAL FREE ENERGY          -9.066799367637 Eh   |
          | GRADIENT NORM               0.000369831037 Eh/Î± |
          | HOMO-LUMO GAP               2.324485630904 eV   |
           -------------------------------------------------

 * finished run on 2020/05/12 at 11:45:15.247
