   * xtb version 6.2.2 (9d81278992624c895f80dd42a50cac0aa55982e2) compiled by '@Darwin' on 04/03/2020
          program call               : xtb --input H2C1N2_2_S_0.input H2C1N2_2_S_0.xyz --ohess --molden --namespace H2C1N2_2_S_0 output.out
          number of atoms            :                     5
          number of electrons        :                    16
          charge                     :                     0
          spin                       :                   0.0

   ID    Z sym.   atoms
    1    7 N      1, 3
    2    6 C      2
    3    1 H      4, 5

          :  Hamiltonian                  GFN2-xTB          :
 * total energy  :    -8.7049070 Eh     change       -0.2126241E-08 Eh
 * total energy  :    -8.7535315 Eh     change       -0.4862450E-01 Eh
 * total energy  :    -8.8031864 Eh     change       -0.4965482E-01 Eh
 * total energy  :    -8.8167188 Eh     change       -0.1353247E-01 Eh
 * total energy  :    -8.8214131 Eh     change       -0.4694287E-02 Eh
 * total energy  :    -8.8249290 Eh     change       -0.3515883E-02 Eh
 * total energy  :    -8.8253437 Eh     change       -0.4147060E-03 Eh
 * total energy  :    -8.8253996 Eh     change       -0.5586651E-04 Eh
 * total energy  :    -8.8256194 Eh     change       -0.2198096E-03 Eh
 * total energy  :    -8.8256714 Eh     change       -0.5203580E-04 Eh
 * total energy  :    -8.8264883 Eh     change       -0.4372975E-03 Eh
 * total energy  :    -8.8267034 Eh     change       -0.2151082E-03 Eh
 * total energy  :    -8.8267959 Eh     change       -0.9254107E-04 Eh
 * total energy  :    -8.8269832 Eh     change       -0.1872576E-03 Eh
 * total energy  :    -8.8270447 Eh     change       -0.6150698E-04 Eh
 * total energy  :    -8.8270889 Eh     change       -0.4418850E-04 Eh
 * total energy  :    -8.8271013 Eh     change       -0.1237940E-04 Eh
 * total energy  :    -8.8271064 Eh     change       -0.5119805E-05 Eh
 * total energy  :    -8.8271067 Eh     change       -0.3626000E-06 Eh
   *** GEOMETRY OPTIMIZATION CONVERGED AFTER 22 ITERATIONS ***

 final structure:
================
5
 xtb: 6.2.2 (9d81278992624c895f80dd42a50cac0aa55982e2)
N        -0.59651934424197    0.39829439205829    0.37170114829188
C        -0.58787388407085   -0.90743323003909   -0.01628384461924
N         0.62545625799943   -0.39222376164659    0.32929587099340
H        -0.77440151405502    1.13330753996234   -0.30473890048423
H         1.33333848436841   -0.23194494033495   -0.37997327418181

          :  Hamiltonian                  GFN2-xTB          :
         :: gradient norm              0.000108274606 Eh/a0 ::
         :: HOMO-LUMO gap              2.769669027076 eV    ::
         :: SCC energy                -8.911000112258 Eh    ::
         :: -> dispersion             -0.001440384482 Eh    ::
         :: repulsion energy           0.083893348992 Eh    ::

    * Orbital Energies and Occupations

         #    Occupation            Energy/Eh            Energy/eV
      -------------------------------------------------------------
         1        2.0000           -0.7256915             -19.7471
         2        2.0000           -0.6152124             -16.7408
         3        2.0000           -0.6072211             -16.5233
         4        2.0000           -0.5696613             -15.5013
         5        2.0000           -0.5034242             -13.6989
         6        2.0000           -0.4973808             -13.5344
         7        2.0000           -0.4168306             -11.3425
         8        2.0000           -0.3973567             -10.8126 (HOMO)
         9                         -0.2955733              -8.0430 (LUMO)
        10                         -0.1277430              -3.4761
        11                          0.0184341               0.5016
        12                          0.0692699               1.8849
        13                          0.2283268               6.2131
        14                          0.3649182               9.9299
      -------------------------------------------------------------
                  HL-Gap            0.1017834 Eh            2.7697 eV

     #   Z        covCN         q      C6AA      Î±(0)
     1   7 N      2.744    -0.118    23.577     7.212
     2   6 C      1.820    -0.056    32.691     9.238
     3   7 N      2.744    -0.119    23.590     7.214
     4   1 H      0.860     0.147     1.423     1.869
     5   1 H      0.860     0.147     1.424     1.869

Wiberg/Mayer (AO) data.
largest (>0.10) Wiberg bond orders for each atom
          total WBO             WBO to atom ...

molecular dipole:
                 x           y           z       tot (Debye)
 q only:        0.210       0.345      -0.345
   full:        0.553       0.902      -0.811       3.389

 projected vibrational frequencies (cm-1)
eigval :       -0.00    -0.00    -0.00     0.00     0.00     0.00
eigval :      323.78   843.63   967.58   968.04  1032.75  1226.14
Molecule has the following symmetry elements: (sigma)
It seems to be the Cs point group
eigval :     1536.36  3318.19  3334.19

   temp. (K)  partition function   enthalpy   heat capacity  entropy
                                   cal/mol     cal/K/mol   cal/K/mol   J/K/mol
  10.00  VIB   1.00                    0.000      0.000     -0.001
         ROT   40.9                   29.809      2.981     10.357
         INT   40.9                   29.809      2.981     10.356
         TR   0.162E+25               49.681      4.968     20.259
         TOT                          79.4904     7.9490    30.6154   128.0949

       T/K    H(0)-H(T)+PV         H(T)/Eh          T*S/Eh         G(T)/Eh
   ------------------------------------------------------------------------
    298.15    0.436999E-02    0.352407E-01    0.282244E-01    0.701631E-02
    120.00    0.155141E-02    0.324221E-01    0.967033E-02    0.227518E-01
    100.00    0.128091E-02    0.321516E-01    0.781219E-02    0.243394E-01
     80.00    0.101779E-02    0.318885E-01    0.601507E-02    0.258734E-01
     60.00    0.760683E-03    0.316314E-01    0.428956E-02    0.273418E-01
     40.00    0.506717E-03    0.313774E-01    0.265384E-02    0.287236E-01
     20.00    0.253352E-03    0.311241E-01    0.115135E-02    0.299727E-01
     10.00    0.126676E-03    0.309974E-01    0.487888E-03    0.305095E-01 (used)
   ------------------------------------------------------------------------

         :::::::::::::::::::::::::::::::::::::::::::::::::::::
         ::                  THERMODYNAMIC                  ::
         :::::::::::::::::::::::::::::::::::::::::::::::::::::
         :: total free energy          -8.796597243517 Eh   ::
         ::.................................................::
         :: total energy               -8.827106742256 Eh   ::
         :: zero point energy           0.030870710315 Eh   ::
         :: G(RRHO) w/o ZPVE           -0.000361211576 Eh   ::
         :: G(RRHO) contrib.            0.030509498739 Eh   ::
         :::::::::::::::::::::::::::::::::::::::::::::::::::::

           -------------------------------------------------
          | TOTAL ENERGY               -8.827106742256 Eh   |
          | TOTAL ENTHALPY             -8.796109355926 Eh   |
          | TOTAL FREE ENERGY          -8.796597243517 Eh   |
          | GRADIENT NORM               0.000108265977 Eh/Î± |
          | HOMO-LUMO GAP               2.769667303326 eV   |
           -------------------------------------------------

 * finished run on 2020/05/12 at 11:45:20.725
