   * xtb version 6.2.2 (9d81278992624c895f80dd42a50cac0aa55982e2) compiled by '@Darwin' on 04/03/2020
          program call               : xtb --input H1O1_0_S_1.input H1O1_0_S_1.xyz --ohess --molden --namespace H1O1_0_S_1 output.out
          number of atoms            :                     2
          number of electrons        :                     7
          charge                     :                     0
          spin                       :                   0.5

   ID    Z sym.   atoms
    1    8 O      1
    2    1 H      2

          :  Hamiltonian                  GFN2-xTB          :
 * total energy  :    -4.4278205 Eh     change       -0.1904255E-11 Eh
 * total energy  :    -4.4283279 Eh     change       -0.5074683E-03 Eh
 * total energy  :    -4.4283744 Eh     change       -0.4645897E-04 Eh
 * total energy  :    -4.4283748 Eh     change       -0.4116704E-06 Eh
   *** GEOMETRY OPTIMIZATION CONVERGED AFTER 4 ITERATIONS ***

 final structure:
================
2
 xtb: 6.2.2 (9d81278992624c895f80dd42a50cac0aa55982e2)
O         0.48189265514125    0.00000000000000    0.00000000000000
H        -0.48189265514125    0.00000000000000    0.00000000000000

          :  Hamiltonian                  GFN2-xTB          :
         :: gradient norm              0.000563490412 Eh/a0 ::
         :: HOMO-LUMO gap             16.847332566918 eV    ::
         :: SCC energy                -4.444521945761 Eh    ::
         :: -> dispersion             -0.000052834392 Eh    ::
         :: repulsion energy           0.016147129952 Eh    ::

    * Orbital Energies and Occupations

         #    Occupation            Energy/Eh            Energy/eV
Molecule has the following symmetry elements: (Cinf) (sigma)
It seems to be the Cinfv point group
      -------------------------------------------------------------
         1        2.0000           -0.7066416             -19.2287
         2        2.0000           -0.5842249             -15.8976
         3        1.5000           -0.4992581             -13.5855
         4        1.5000           -0.4992581             -13.5855 (HOMO)
         5                          0.1198700               3.2618 (LUMO)
      -------------------------------------------------------------
                  HL-Gap            0.6191281 Eh           16.8473 eV

     #   Z        covCN         q      C6AA      α(0)
     1   8 O      0.805    -0.331    20.367     6.049
     2   1 H      0.805     0.331     0.635     1.252

Wiberg/Mayer (AO) data.
largest (>0.10) Wiberg bond orders for each atom
          total WBO             WBO to atom ...

molecular dipole:
                 x           y           z       tot (Debye)
 q only:       -0.602       0.000       0.000
   full:       -0.814       0.000       0.000       2.070

   temp. (K)  partition function   enthalpy   heat capacity  entropy
                                   cal/mol     cal/K/mol   cal/K/mol   J/K/mol
  10.00  VIB   1.00                    0.000      0.000     -0.000
         ROT  0.363                   19.873      1.987     -0.026
         INT  0.363                   19.873      1.987     -0.026
         TR   0.417E+24               49.681      4.968     17.563
         TOT                          69.5541     6.9554    17.5374    73.3764

       T/K    H(0)-H(T)+PV         H(T)/Eh          T*S/Eh         G(T)/Eh
   ------------------------------------------------------------------------
    298.15    0.330474E-02    0.114373E-01    0.195483E-01   -0.811099E-02
    120.00    0.133010E-02    0.946265E-02    0.665773E-02    0.280493E-02
    100.00    0.110842E-02    0.924097E-02    0.534609E-02    0.389488E-02
     80.00    0.886732E-03    0.901929E-02    0.407907E-02    0.494022E-02
     60.00    0.665049E-03    0.879761E-02    0.286805E-02    0.592956E-02
     40.00    0.443366E-03    0.857592E-02    0.173233E-02    0.684360E-02
     20.00    0.221683E-03    0.835424E-02    0.712557E-03    0.764168E-02
     10.00    0.110842E-03    0.824340E-02    0.279476E-03    0.796392E-02 (used)
   ------------------------------------------------------------------------

         :::::::::::::::::::::::::::::::::::::::::::::::::::::
         ::                  THERMODYNAMIC                  ::
         :::::::::::::::::::::::::::::::::::::::::::::::::::::
         :: total free energy          -4.420410893727 Eh   ::
         ::.................................................::
         :: total energy               -4.428374815809 Eh   ::
         :: zero point energy           0.008132556516 Eh   ::
         :: G(RRHO) w/o ZPVE           -0.000168634434 Eh   ::
         :: G(RRHO) contrib.            0.007963922082 Eh   ::
         :::::::::::::::::::::::::::::::::::::::::::::::::::::

           -------------------------------------------------
          | TOTAL ENERGY               -4.428374815809 Eh   |
          | TOTAL ENTHALPY             -4.420131417780 Eh   |
          | TOTAL FREE ENERGY          -4.420410893727 Eh   |
          | GRADIENT NORM               0.000563490460 Eh/α |
          | HOMO-LUMO GAP              16.847332568351 eV   |
           -------------------------------------------------

 * finished run on 2020/05/12 at 11:44:43.635
