   * xtb version 6.2.2 (9d81278992624c895f80dd42a50cac0aa55982e2) compiled by '@Darwin' on 04/03/2020
          program call               : xtb --input C4N1_12_S_3.input C4N1_12_S_3.xyz --ohess --molden --namespace C4N1_12_S_3 output.out
          number of atoms            :                     5
          number of electrons        :                    21
          charge                     :                     0
          spin                       :                   1.5

   ID    Z sym.   atoms
    1    7 N      1
    2    6 C      2-5

          :  Hamiltonian                  GFN2-xTB          :
 * total energy  :   -10.8563124 Eh     change       -0.2051269E-08 Eh
 * total energy  :   -10.9423866 Eh     change       -0.8607417E-01 Eh
 * total energy  :   -10.9762248 Eh     change       -0.3383818E-01 Eh
 * total energy  :   -11.0350840 Eh     change       -0.5885925E-01 Eh
 * total energy  :   -11.0531840 Eh     change       -0.1809997E-01 Eh
 * total energy  :   -11.0796789 Eh     change       -0.2649487E-01 Eh
 * total energy  :   -11.0938990 Eh     change       -0.1422013E-01 Eh
 * total energy  :   -11.0713760 Eh     change        0.2252303E-01 Eh
 * total energy  :   -11.1019471 Eh     change       -0.3057110E-01 Eh
 * total energy  :   -11.1051346 Eh     change       -0.3187566E-02 Eh
 * total energy  :   -11.1307517 Eh     change       -0.5930110E-04 Eh
 * total energy  :   -11.1308193 Eh     change       -0.6754853E-04 Eh
 * total energy  :   -11.1310037 Eh     change       -0.1843909E-03 Eh
 * total energy  :   -11.1310293 Eh     change       -0.2560688E-04 Eh
 * total energy  :   -11.1310539 Eh     change       -0.2466957E-04 Eh
 * total energy  :   -11.1310785 Eh     change       -0.2458525E-04 Eh
 * total energy  :   -11.1310953 Eh     change       -0.1682157E-04 Eh
 * total energy  :   -11.1311011 Eh     change       -0.5737963E-05 Eh
 * total energy  :   -11.1311021 Eh     change       -0.9858447E-06 Eh
   *** GEOMETRY OPTIMIZATION CONVERGED AFTER 34 ITERATIONS ***

 final structure:
================
5
 xtb: 6.2.2 (9d81278992624c895f80dd42a50cac0aa55982e2)
N        -2.48496494393427   -0.02422030568387   -0.11958598635388
C        -1.31329653291181   -0.01059430339394   -0.06443889801648
C         1.28552494790604    0.01127421978081    0.06043371442040
C        -0.01045278736309    0.00386114409359    0.00099232721682
C         2.52318831630313    0.01967824520341    0.12259784273316

          :  Hamiltonian                  GFN2-xTB          :
         :: gradient norm              0.000273716001 Eh/a0 ::
         :: HOMO-LUMO gap              4.159052671614 eV    ::
         :: SCC energy               -11.421112126062 Eh    ::
         :: -> dispersion             -0.002586655488 Eh    ::
         :: repulsion energy           0.290011203613 Eh    ::

    * Orbital Energies and Occupations

         #    Occupation            Energy/Eh            Energy/eV
      -------------------------------------------------------------
         1        2.0000           -0.6759695             -18.3941
         2        2.0000           -0.6715889             -18.2749
         3        2.0000           -0.6486623             -17.6510
         4        2.0000           -0.5979990             -16.2724
         5        2.0000           -0.5322419             -14.4830
         6        2.0000           -0.5322418             -14.4830
         7        2.0000           -0.4893745             -13.3166
         8        2.0000           -0.4893742             -13.3165
         9        2.0000           -0.4640231             -12.6267
        10        1.0000           -0.4417570             -12.0208
        11        1.0000           -0.3900839             -10.6147
        12        1.0000           -0.3900828             -10.6147 (HOMO)
        13                         -0.2372406              -6.4556 (LUMO)
        14                         -0.2372388              -6.4556
        15                         -0.1015718              -2.7639
        16                         -0.1015682              -2.7638
        17                          0.0919761               2.5028
        18                          0.5195723              14.1383
        19                          1.0729259              29.1958
        20                          1.4583201              39.6829
      -------------------------------------------------------------
                  HL-Gap            0.1528423 Eh            4.1590 eV

     #   Z        covCN         q      C6AA      Î±(0)
     1   7 N      0.912    -0.172    24.715     7.189
     2   6 C      1.892     0.134    27.848     8.523
Molecule has the following symmetry elements: (Cinf) (sigma)
It seems to be the Cinfv point group
     3   6 C      1.962     0.048    29.848     8.823
     4   6 C      1.965     0.022    30.509     8.920
     5   6 C      0.983    -0.031    36.887    10.202

Wiberg/Mayer (AO) data.
largest (>0.10) Wiberg bond orders for each atom
          total WBO             WBO to atom ...

molecular dipole:
                 x           y           z       tot (Debye)
 q only:        0.442       0.005       0.021
   full:        0.820       0.009       0.038       2.086

 projected vibrational frequencies (cm-1)
eigval :       -0.00    -0.00    -0.00     0.00     0.00     0.00
eigval :      116.23   277.67   303.59   409.91   411.16   796.16
eigval :     1626.34  1905.24  2114.79

   temp. (K)  partition function   enthalpy   heat capacity  entropy
                                   cal/mol     cal/K/mol   cal/K/mol   J/K/mol
  10.00  VIB   1.00                    0.000      0.000     -0.026
         ROT   1.99                   29.809      2.981      4.346
         INT   1.99                   29.809      2.981      4.320
         TR   0.290E+25               49.681      4.968     21.419
         TOT                          79.4904     7.9491    25.7397   107.6950

       T/K    H(0)-H(T)+PV         H(T)/Eh          T*S/Eh         G(T)/Eh
   ------------------------------------------------------------------------
    298.15    0.602758E-02    0.241643E-01    0.289389E-01   -0.477465E-02
    120.00    0.180695E-02    0.199436E-01    0.913045E-02    0.108132E-01
    100.00    0.144096E-02    0.195776E-01    0.727616E-02    0.123015E-01
     80.00    0.110500E-02    0.192417E-01    0.552205E-02    0.137196E-01
     60.00    0.797596E-03    0.189343E-01    0.387703E-02    0.150573E-01
     40.00    0.515010E-03    0.186517E-01    0.235601E-02    0.162957E-01
     20.00    0.253476E-03    0.183902E-01    0.996844E-03    0.173933E-01
     10.00    0.126676E-03    0.182634E-01    0.410189E-03    0.178532E-01 (used)
   ------------------------------------------------------------------------

         :::::::::::::::::::::::::::::::::::::::::::::::::::::
         ::                  THERMODYNAMIC                  ::
         :::::::::::::::::::::::::::::::::::::::::::::::::::::
         :: total free energy         -11.113248888585 Eh   ::
         ::.................................................::
         :: total energy              -11.131102063396 Eh   ::
         :: zero point energy           0.018136687473 Eh   ::
         :: G(RRHO) w/o ZPVE           -0.000283512661 Eh   ::
         :: G(RRHO) contrib.            0.017853174811 Eh   ::
         :::::::::::::::::::::::::::::::::::::::::::::::::::::

           -------------------------------------------------
          | TOTAL ENERGY              -11.131102063396 Eh   |
          | TOTAL ENTHALPY            -11.112838699879 Eh   |
          | TOTAL FREE ENERGY         -11.113248888585 Eh   |
          | GRADIENT NORM               0.000272690821 Eh/Î± |
          | HOMO-LUMO GAP               4.159049479452 eV   |
           -------------------------------------------------

 * finished run on 2020/05/12 at 11:44:03.263
