   * xtb version 6.2.2 (9d81278992624c895f80dd42a50cac0aa55982e2) compiled by '@Darwin' on 04/03/2020
          program call               : xtb --input C4N1_48_S_3.input C4N1_48_S_3.xyz --ohess --molden --namespace C4N1_48_S_3 output.out
          number of atoms            :                     5
          number of electrons        :                    21
          charge                     :                     0
          spin                       :                   1.5

   ID    Z sym.   atoms
    1    6 C      1, 3-5
    2    7 N      2

          :  Hamiltonian                  GFN2-xTB          :
 * total energy  :   -10.9535900 Eh     change       -0.4860645E-09 Eh
 * total energy  :   -10.9660359 Eh     change       -0.1244590E-01 Eh
 * total energy  :   -10.9773752 Eh     change       -0.1133930E-01 Eh
 * total energy  :   -10.9795221 Eh     change       -0.2146814E-02 Eh
 * total energy  :   -10.9810773 Eh     change       -0.1555291E-02 Eh
 * total energy  :   -10.9819496 Eh     change       -0.8722819E-03 Eh
 * total energy  :   -10.9826304 Eh     change       -0.6807334E-03 Eh
 * total energy  :   -10.9826868 Eh     change       -0.5648407E-04 Eh
 * total energy  :   -10.9827195 Eh     change       -0.3264120E-04 Eh
 * total energy  :   -10.9827292 Eh     change       -0.9725618E-05 Eh
 * total energy  :   -10.9827303 Eh     change       -0.1047026E-05 Eh
   *** GEOMETRY OPTIMIZATION CONVERGED AFTER 11 ITERATIONS ***

 final structure:
================
5
 xtb: 6.2.2 (9d81278992624c895f80dd42a50cac0aa55982e2)
C         0.02533251237038   -1.04516647365252    0.14692178628241
N        -0.79536160666247    0.01871350251168    0.63907929283757
C         0.15144919768354    1.01605239006391    0.24351790284896
C        -0.43575426421730    0.06406587941033   -0.79807155170936
C         1.05433416082585   -0.05366529833341   -0.23144743025957

          :  Hamiltonian                  GFN2-xTB          :
         :: gradient norm              0.000301961621 Eh/a0 ::
         :: HOMO-LUMO gap              4.148385644510 eV    ::
         :: SCC energy               -11.091591736442 Eh    ::
         :: -> dispersion             -0.002597131094 Eh    ::
         :: repulsion energy           0.108861462152 Eh    ::

    * Orbital Energies and Occupations

         #    Occupation            Energy/Eh            Energy/eV
      -------------------------------------------------------------
         1        2.0000           -0.7836144             -21.3232
         2        2.0000           -0.6703046             -18.2399
         3        2.0000           -0.6678934             -18.1743
         4        2.0000           -0.6323064             -17.2059
         5        2.0000           -0.5635532             -15.3351
         6        2.0000           -0.5188015             -14.1173
         7        2.0000           -0.5150675             -14.0157
         8        2.0000           -0.4915688             -13.3763
         9        2.0000           -0.4833068             -13.1514
        10        1.0000           -0.4627271             -12.5914
        11        1.0000           -0.4082469             -11.1090
        12        1.0000           -0.3993170             -10.8660 (HOMO)
        13                         -0.2468667              -6.7176 (LUMO)
        14                         -0.1691808              -4.6036
        15                         -0.1429120              -3.8888
        16                          0.0080083               0.2179
        17                          0.0679582               1.8492
        18                          0.1028931               2.7999
        19                          0.1146358               3.1194
        20                          0.3317038               9.0261
      -------------------------------------------------------------
                  HL-Gap            0.1524503 Eh            4.1484 eV

     #   Z        covCN         q      C6AA      Î±(0)
     1   6 C      3.215    -0.014    27.669     8.558
     2   7 N      2.990    -0.079    22.764     7.086
     3   6 C      3.215    -0.014    27.669     8.558
     4   6 C      3.819     0.116    18.678     6.150
     5   6 C      3.189    -0.009    27.761     8.595

Wiberg/Mayer (AO) data.
largest (>0.10) Wiberg bond orders for each atom
          total WBO             WBO to atom ...

molecular dipole:
                 x           y           z       tot (Debye)
 q only:       -0.000       0.013      -0.276
   full:       -0.299       0.039      -0.448       1.373

 projected vibrational frequencies (cm-1)
eigval :       -0.00    -0.00    -0.00    -0.00     0.00     0.00
eigval :      265.03   413.29   549.22   889.44   997.98  1055.37
eigval :     1137.10  1159.76  1406.58

   temp. (K)  partition function   enthalpy   heat capacity  entropy
                                   cal/mol     cal/K/mol   cal/K/mol   J/K/mol
  10.00  VIB   1.00                    0.000      0.000     -0.003
         ROT   133.                   29.809      2.981     12.694
         INT   133.                   29.809      2.981     12.691
         TR   0.290E+25               49.681      4.968     21.419
         TOT                          79.4904     7.9490    34.1107   142.7193

       T/K    H(0)-H(T)+PV         H(T)/Eh          T*S/Eh         G(T)/Eh
   ------------------------------------------------------------------------
    298.15    0.490090E-02    0.228387E-01    0.307014E-01   -0.786272E-02
    120.00    0.158961E-02    0.195274E-01    0.103888E-01    0.913856E-02
    100.00    0.129990E-02    0.192377E-01    0.839352E-02    0.108442E-01
     80.00    0.102502E-02    0.189628E-01    0.646973E-02    0.124931E-01
     60.00    0.762256E-03    0.187000E-01    0.462576E-02    0.140743E-01
     40.00    0.506792E-03    0.184446E-01    0.287682E-02    0.155677E-01
     20.00    0.253352E-03    0.181911E-01    0.126277E-02    0.169283E-01
     10.00    0.126676E-03    0.180644E-01    0.543589E-03    0.175209E-01 (used)
   ------------------------------------------------------------------------

         :::::::::::::::::::::::::::::::::::::::::::::::::::::
         ::                  THERMODYNAMIC                  ::
         :::::::::::::::::::::::::::::::::::::::::::::::::::::
         :: total free energy         -10.965209406241 Eh   ::
         ::.................................................::
         :: total energy              -10.982730257456 Eh   ::
         :: zero point energy           0.017937764308 Eh   ::
         :: G(RRHO) w/o ZPVE           -0.000416913093 Eh   ::
         :: G(RRHO) contrib.            0.017520851215 Eh   ::
         :::::::::::::::::::::::::::::::::::::::::::::::::::::

           -------------------------------------------------
          | TOTAL ENERGY              -10.982730257456 Eh   |
          | TOTAL ENTHALPY            -10.964665817132 Eh   |
          | TOTAL FREE ENERGY         -10.965209406241 Eh   |
          | GRADIENT NORM               0.000302083580 Eh/Î± |
          | HOMO-LUMO GAP               4.148382856593 eV   |
           -------------------------------------------------

 * finished run on 2020/05/12 at 11:44:20.304
