 Gaussian 16, Revision B.01,

 --------------------------------------------------------
 #P M062X/cc-pvtz nosymm opt(noeigentest) optcyc=120 freq
 --------------------------------------------------------

 -----
 Title
 -----
 Symbolic Z-matrix:
 Charge =  0 Multiplicity = 2

 SCF Done:  E(UM062X) =  -193.367310564     A.U. after   18 cycles
 SCF Done:  E(UM062X) =  -193.378849254     A.U. after   18 cycles
 SCF Done:  E(UM062X) =  -193.384264239     A.U. after   18 cycles
 SCF Done:  E(UM062X) =  -193.388713449     A.U. after   20 cycles
 SCF Done:  E(UM062X) =  -193.390909128     A.U. after   18 cycles
 SCF Done:  E(UM062X) =  -193.390441428     A.U. after   16 cycles
 SCF Done:  E(UM062X) =  -193.391179495     A.U. after   15 cycles
 SCF Done:  E(UM062X) =  -193.391191189     A.U. after   13 cycles
 SCF Done:  E(UM062X) =  -193.391209311     A.U. after   12 cycles
 SCF Done:  E(UM062X) =  -193.391211368     A.U. after   10 cycles
 SCF Done:  E(UM062X) =  -193.391211496     A.U. after    8 cycles
 Optimization completed.
    -- Stationary point found.
 Normal termination of Gaussian 16 at Mon Sep 28 11:21:08 2020.

 -------------------------------------------------------------------
 #P Geom=AllCheck Guess=TCheck SCRF=Check GenChk UM062X/CC-pVTZ Freq
 -------------------------------------------------------------------

 Structure from the checkpoint file:  "input.chk"
 -----
 Title
 -----
 Charge =  0 Multiplicity = 2

 SCF Done:  E(UM062X) =  -193.391211496     A.U. after    1 cycles

  Exact polarizability:  50.848  -7.079  46.347  21.562 -30.954  95.962
 Approx polarizability:  58.208  -6.326  56.462  19.676 -33.394 108.076

                      1                      2                      3
                      A                      A                      A
 Frequencies --    154.0384               170.6036               400.8465
 Red. masses --      2.9573                 3.3708                 2.7848
 Frc consts  --      0.0413                 0.0578                 0.2636
 IR Inten    --      1.8361                 0.7607                 4.1808

                      4                      5                      6
                      A                      A                      A
 Frequencies --    434.3064               560.1588               594.8570
 Red. masses --      3.9737                 5.1942                 1.1233
 Frc consts  --      0.4416                 0.9603                 0.2342
 IR Inten    --      4.2994                 6.1496                 8.1871

                      7                      8                      9
                      A                      A                      A
 Frequencies --    621.5360               710.2899               778.2638
 Red. masses --      1.2910                 1.2788                 1.6649
 Frc consts  --      0.2938                 0.3801                 0.5941
 IR Inten    --     49.4014                40.9409                 2.0917

                     10                     11                     12
                      A                      A                      A
 Frequencies --    896.6502               928.1770              1022.8972
 Red. masses --      1.3840                 1.7468                 1.1559
 Frc consts  --      0.6556                 0.8867                 0.7126
 IR Inten    --     49.4146                 0.7509                24.0154

                     13                     14                     15
                      A                      A                      A
 Frequencies --   1091.9211              1172.8989              1300.0162
 Red. masses --      2.1090                 2.1320                 1.6764
 Frc consts  --      1.4815                 1.7280                 1.6693
 IR Inten    --     12.5179                 3.9748                 4.1858

                     16                     17                     18
                      A                      A                      A
 Frequencies --   1337.3600              1454.5828              1545.1062
 Red. masses --      1.7830                 1.6170                 1.7190
 Frc consts  --      1.8789                 2.0157                 2.4179
 IR Inten    --      0.0060                28.2741                 1.6700

                     19                     20                     21
                      A                      A                      A
 Frequencies --   2133.6496              3170.6044              3180.9622
 Red. masses --      6.2826                 1.0556                 1.0887
 Frc consts  --     16.8513                 6.2521                 6.4904
 IR Inten    --      1.2752                 4.2860                 2.2317

                     22                     23                     24
                      A                      A                      A
 Frequencies --   3190.6470              3272.3518              3481.6337
 Red. masses --      1.0881                 1.1165                 1.1508
 Frc consts  --      6.5263                 7.0440                 8.2189
 IR Inten    --      3.8421                 4.2424                79.9562

 - Thermochemistry -
 -------------------
 Temperature   298.150 Kelvin.  Pressure   1.00000 Atm.
 Atom     1 has atomic number  6 and mass  12.00000

 Molecular mass:    65.03913 amu.
 Principal axes and moments of inertia in atomic units:
                           1         2         3
     Eigenvalues --    43.95202 743.91994 787.87194
           X            0.37132   0.90428  -0.21073
           Y           -0.38032   0.35517   0.85394
           Z            0.84704  -0.23694   0.47579
 This molecule is an asymmetric top.
 Rotational symmetry number  1.
 Rotational temperatures (Kelvin)      1.97065     0.11643     0.10993
 Rotational constants (GHZ):          41.06162     2.42599     2.29065
 Zero-point vibrational energy     200998.7 (Joules/Mol)
                                   48.03984 (Kcal/Mol)
 Warning -- explicit consideration of   6 degrees of freedom as
           vibrations may cause significant error
 Vibrational temperatures:    221.63   245.46   576.73   624.87   805.94
          (Kelvin)            855.87   894.25  1021.95  1119.75  1290.08
                             1335.44  1471.72  1571.03  1687.54  1870.43
                             1924.16  2092.82  2223.06  3069.85  4561.79
                             4576.70  4590.63  4708.18  5009.29

 Zero-point correction=                           0.076556 (Hartree/Particle)
 Thermal correction to Energy=                    0.082120
 Thermal correction to Enthalpy=                  0.083064
 Thermal correction to Gibbs Free Energy=         0.047962
 Sum of electronic and zero-point Energies=           -193.314655
 Sum of electronic and thermal Energies=              -193.309091
 Sum of electronic and thermal Enthalpies=            -193.308147
 Sum of electronic and thermal Free Energies=         -193.343250

                     E (Thermal)             CV                S
                      KCal/Mol        Cal/Mol-Kelvin    Cal/Mol-Kelvin
 Total                   51.531             19.514             73.880
 Electronic               0.000              0.000              1.377
 Translational            0.889              2.981             38.436
 Rotational               0.889              2.981             24.758
 Vibrational             49.754             13.552              9.309
 Vibration     1          0.620              1.898              2.622
 Vibration     2          0.626              1.879              2.429
 Vibration     3          0.767              1.468              0.960
 Vibration     4          0.795              1.395              0.845
 Vibration     5          0.916              1.118              0.524
 Vibration     6          0.953              1.043              0.459

 Optimization completed.
    -- Stationary point found.
 Normal termination of Gaussian 16 at Mon Sep 28 11:26:18 2020.
 Gaussian 16:  ES64L-G16RevB.01 20-Dec-2017

 -----------------------------------------------
 #P CCSD(T)/aug-cc-pvtz geom=allcheck guess=read
 -----------------------------------------------

 Structure from the checkpoint file:  "input.chk"
 -----
 Title
 -----
 Charge =  0 Multiplicity = 2

                         Standard orientation:
 ---------------------------------------------------------------------
 Center     Atomic      Atomic             Coordinates (Angstroms)
 Number     Number       Type             X           Y           Z
 ---------------------------------------------------------------------
      1          6           0        2.346600   -0.033271    0.000188
      2          6           0        1.039926   -0.400047   -0.000193
      3          6           0       -0.024617    0.517420   -0.000161
      4          6           0       -1.366557    0.131706    0.000022
      5          1           0        0.196259    1.577942   -0.000444
      6          6           0       -2.528635   -0.196050    0.000091
      7          1           0       -3.550519   -0.486070    0.000449
      8          1           0        3.137542   -0.767687    0.000202
      9          1           0        2.631993    1.010459    0.000571
     10          1           0        0.784419   -1.453190   -0.000456
 ---------------------------------------------------------------------

 SCF Done:  E(UHF) =  -192.222690376     A.U. after   20 cycles
 E2 =    -0.7408317182D+00 EUMP2 =    -0.19296352209397D+03
 CCSD(T)
 CCSD(T)= -0.19305603953D+03

 The electronic state is 2-A.
 Alpha  occ. eigenvalues --  -11.26322 -11.23934 -11.23864 -11.23295 -11.22740
 Alpha  occ. eigenvalues --   -1.11050  -1.03892  -0.96459  -0.78901  -0.73127
 Alpha  occ. eigenvalues --   -0.68120  -0.62397  -0.57920  -0.52506  -0.50755
 Alpha  occ. eigenvalues --   -0.42226  -0.40358  -0.33039
 Alpha virt. eigenvalues --    0.02987   0.03193   0.03806   0.04929   0.05914
 Alpha virt. eigenvalues --    0.08688   0.08957   0.09610   0.09762   0.10223
 Alpha virt. eigenvalues --    0.10670   0.11430   0.12481   0.12750   0.13571

  Beta  occ. eigenvalues --  -11.24704 -11.24456 -11.24344 -11.22285 -11.22055
  Beta  occ. eigenvalues --   -1.09960  -1.03081  -0.90326  -0.78240  -0.72209
  Beta  occ. eigenvalues --   -0.67573  -0.61968  -0.57476  -0.52315  -0.46065
  Beta  occ. eigenvalues --   -0.39737  -0.38104
  Beta virt. eigenvalues --    0.03030   0.03233   0.03807   0.04932   0.05898
  Beta virt. eigenvalues --    0.06265   0.08433   0.09132   0.09458   0.09802
  Beta virt. eigenvalues --    0.10235   0.11266   0.11503   0.12538   0.13722

 Mulliken charges and spin densities:
               1          2
     1  C   -1.024978   0.790719
     2  C   -0.283569  -0.650432
     3  C   -0.082414   0.966968
     4  C    1.294731  -0.812290
     5  H    0.219887  -0.079965
     6  C   -1.516130   0.883733
     7  H    0.440393  -0.075877
     8  H    0.461814  -0.039637
     9  H    0.307829  -0.049507
    10  H    0.182436   0.066289
 Sum of Mulliken charges =  -0.00000   1.00000

 Dipole moment (field-independent basis, Debye):
    X=              0.4147    Y=             -0.0271    Z=              0.0002  Tot=              0.4156
 Quadrupole moment (field-independent basis, Debye-Ang):
   XX=            -24.3337   YY=            -28.7136   ZZ=            -33.8086
   XY=              1.4990   XZ=             -0.0008   YZ=              0.0001

 94\CCSD=-193.0157698\CCSD(T)=-193.0560395\S2=1.111644\S2-1=1.005169\S2
 Normal termination of Gaussian 16 at Mon Sep 28 15:38:16 2020.
