   * xtb version 6.2.2 (9d81278992624c895f80dd42a50cac0aa55982e2) compiled by '@Darwin' on 04/03/2020
          program call               : xtb --input H2O2_0_S_2.input H2O2_0_S_2.xyz --ohess --molden --namespace H2O2_0_S_2 output.out
          number of atoms            :                     4
          number of electrons        :                    14
          charge                     :                     0
          spin                       :                   1.0

   ID    Z sym.   atoms
    1    8 O      1, 2
    2    1 H      3, 4

          :  Hamiltonian                  GFN2-xTB          :
 * total energy  :    -8.6376898 Eh     change       -0.2593515E-08 Eh
 * total energy  :    -8.8687866 Eh     change       -0.2310968E+00 Eh
 * total energy  :    -8.8878709 Eh     change       -0.1908429E-01 Eh
 * total energy  :    -8.8984645 Eh     change       -0.1059363E-01 Eh
 * total energy  :    -8.9009638 Eh     change       -0.2499262E-02 Eh
 * total energy  :    -8.9022585 Eh     change       -0.1294676E-02 Eh
 * total energy  :    -8.9025804 Eh     change       -0.3218986E-03 Eh
 * total energy  :    -8.9036267 Eh     change       -0.1046335E-02 Eh
 * total energy  :    -8.9037985 Eh     change       -0.1717936E-03 Eh
 * total energy  :    -8.9038315 Eh     change       -0.3296424E-04 Eh
 * total energy  :    -8.9038699 Eh     change       -0.3846772E-04 Eh
 * total energy  :    -8.9039370 Eh     change       -0.6710263E-04 Eh
 * total energy  :    -8.9039625 Eh     change       -0.2541460E-04 Eh
 * total energy  :    -8.9039713 Eh     change       -0.8858053E-05 Eh
 * total energy  :    -8.9039732 Eh     change       -0.1935113E-05 Eh
   *** GEOMETRY OPTIMIZATION CONVERGED AFTER 15 ITERATIONS ***

 final structure:
================
4
 xtb: 6.2.2 (9d81278992624c895f80dd42a50cac0aa55982e2)
O         0.85865103957627   -0.04189990733642    0.38850993875684
O        -0.85864537252660    0.04216218462655   -0.38849326155691
H         1.33548266969273    0.00141135956316   -0.44588975876174
H        -1.33548733674240   -0.00167263685329    0.44587308156181

          :  Hamiltonian                  GFN2-xTB          :
         :: gradient norm              0.000200174944 Eh/a0 ::
         :: HOMO-LUMO gap             13.748776300877 eV    ::
         :: SCC energy                -8.936817122836 Eh    ::
         :: -> dispersion             -0.000477453667 Eh    ::
         :: repulsion energy           0.032843876410 Eh    ::

    * Orbital Energies and Occupations

         #    Occupation            Energy/Eh            Energy/eV
      -------------------------------------------------------------
         1        2.0000           -0.6969084             -18.9638
         2        2.0000           -0.6902654             -18.7831
         3        2.0000           -0.5873622             -15.9829
         4        2.0000           -0.5632954             -15.3280
         5        2.0000           -0.5396415             -14.6844
         6        2.0000           -0.5020567             -13.6617
         7        1.0000           -0.4687659             -12.7558
         8        1.0000           -0.3897003             -10.6043 (HOMO)
         9                          0.1155579               3.1445 (LUMO)
        10                          0.1669217               4.5422
      -------------------------------------------------------------
                  HL-Gap            0.5052582 Eh           13.7488 eV

     #   Z        covCN         q      C6AA      Î±(0)
     1   8 O      0.899    -0.332    20.355     6.050
     2   8 O      0.899    -0.332    20.355     6.050
     3   1 H      0.805     0.332     0.631     1.248
     4   1 H      0.805     0.332     0.631     1.248

Wiberg/Mayer (AO) data.
largest (>0.10) Wiberg bond orders for each atom
          total WBO             WBO to atom ...

molecular dipole:
                 x           y           z       tot (Debye)
 q only:       -0.000      -0.000      -0.000
   full:       -0.000      -0.000      -0.000       0.001

 projected vibrational frequencies (cm-1)
eigval :       -0.00    -0.00     0.00     0.00     0.00     0.00
eigval :      521.28   540.34   641.11   656.04  3592.83  3597.46

   temp. (K)  partition function   enthalpy   heat capacity  entropy
                                   cal/mol     cal/K/mol   cal/K/mol   J/K/mol
  10.00  VIB   1.00                    0.000      0.000     -0.001
         ROT   9.70                   29.809      2.981      7.497
         INT   9.70                   29.809      2.981      7.497
         TR   0.118E+25               49.681      4.968     19.628
         TOT                          79.4904     7.9490    27.1249   113.4904

       T/K    H(0)-H(T)+PV         H(T)/Eh          T*S/Eh         G(T)/Eh
   ------------------------------------------------------------------------
    298.15    0.445197E-02    0.262063E-01    0.266182E-01   -0.411892E-03
    120.00    0.153098E-02    0.232853E-01    0.897595E-02    0.143094E-01
    100.00    0.126964E-02    0.230240E-01    0.724188E-02    0.157821E-01
     80.00    0.101381E-02    0.227682E-01    0.556528E-02    0.172029E-01
     60.00    0.760072E-03    0.225144E-01    0.395505E-02    0.185594E-01
     40.00    0.506704E-03    0.222611E-01    0.243130E-02    0.198298E-01
     20.00    0.253352E-03    0.220077E-01    0.104009E-02    0.209676E-01
     10.00    0.126676E-03    0.218810E-01    0.432262E-03    0.214488E-01 (used)
   ------------------------------------------------------------------------

         :::::::::::::::::::::::::::::::::::::::::::::::::::::
         ::                  THERMODYNAMIC                  ::
         :::::::::::::::::::::::::::::::::::::::::::::::::::::
         :: total free energy          -8.882524474510 Eh   ::
         ::.................................................::
         :: total energy               -8.903973245022 Eh   ::
         :: zero point energy           0.021754356715 Eh   ::
         :: G(RRHO) w/o ZPVE           -0.000305586203 Eh   ::
         :: G(RRHO) contrib.            0.021448770512 Eh   ::
         :::::::::::::::::::::::::::::::::::::::::::::::::::::

           -------------------------------------------------
          | TOTAL ENERGY               -8.903973245022 Eh   |
          | TOTAL ENTHALPY             -8.882092212292 Eh   |
          | TOTAL FREE ENERGY          -8.882524474510 Eh   |
          | GRADIENT NORM               0.000200183656 Eh/Î± |
          | HOMO-LUMO GAP              13.748776342025 eV   |
           -------------------------------------------------

 * finished run on 2020/05/12 at 11:43:55.077
