   * xtb version 6.2.2 (9d81278992624c895f80dd42a50cac0aa55982e2) compiled by '@Darwin' on 04/03/2020
          program call               : xtb --input C3O1_3_S_2.input C3O1_3_S_2.xyz --ohess --molden --namespace C3O1_3_S_2 output.out
          number of atoms            :                     4
          number of electrons        :                    18
          charge                     :                     0
          spin                       :                   1.0

   ID    Z sym.   atoms
    1    6 C      1-3
    2    8 O      4

          :  Hamiltonian                  GFN2-xTB          :
 * total energy  :   -10.0436984 Eh     change        0.2537739E-09 Eh
 * total energy  :   -10.0740293 Eh     change       -0.3033085E-01 Eh
 * total energy  :   -10.0861538 Eh     change       -0.1212455E-01 Eh
 * total energy  :   -10.0940446 Eh     change       -0.7890739E-02 Eh
 * total energy  :   -10.0952479 Eh     change       -0.1203325E-02 Eh
 * total energy  :   -10.0967934 Eh     change       -0.1545569E-02 Eh
 * total energy  :   -10.0984694 Eh     change       -0.1675932E-02 Eh
 * total energy  :   -10.1006796 Eh     change       -0.2210180E-02 Eh
 * total energy  :   -10.1041189 Eh     change       -0.3439362E-02 Eh
 * total energy  :   -10.1086171 Eh     change       -0.4498170E-02 Eh
 * total energy  :   -10.2069138 Eh     change       -0.4316228E-03 Eh
 * total energy  :   -10.2076019 Eh     change       -0.6881272E-03 Eh
 * total energy  :   -10.2077178 Eh     change       -0.1158782E-03 Eh
 * total energy  :   -10.2077896 Eh     change       -0.7181986E-04 Eh
 * total energy  :   -10.2078220 Eh     change       -0.3238707E-04 Eh
 * total energy  :   -10.2078750 Eh     change       -0.5305689E-04 Eh
 * total energy  :   -10.2078926 Eh     change       -0.1753564E-04 Eh
 * total energy  :   -10.2079020 Eh     change       -0.9390708E-05 Eh
 * total energy  :   -10.2079041 Eh     change       -0.2103230E-05 Eh
   *** GEOMETRY OPTIMIZATION CONVERGED AFTER 35 ITERATIONS ***

 final structure:
================
4
 xtb: 6.2.2 (9d81278992624c895f80dd42a50cac0aa55982e2)
C         1.78243723560347   -0.41988086175152    0.23186945693793
C         0.59854847786077   -0.22713944172626   -0.09718608750947
C        -0.63135538339095    0.23924613276174    0.08708489262077
O        -1.74963133007329    0.40777317071605   -0.22176826204923

          :  Hamiltonian                  GFN2-xTB          :
         :: gradient norm              0.000905031350 Eh/a0 ::
         :: HOMO-LUMO gap              0.342026717581 eV    ::
         :: SCC energy               -10.391731472243 Eh    ::
         :: -> dispersion             -0.001629933984 Eh    ::
         :: repulsion energy           0.183827488359 Eh    ::

    * Orbital Energies and Occupations

         #    Occupation            Energy/Eh            Energy/eV
      -------------------------------------------------------------
         1        2.0000           -0.7698809             -20.9495
         2        2.0000           -0.6809474             -18.5295
         3        2.0000           -0.6413120             -17.4510
         4        2.0000           -0.5994370             -16.3115
         5        2.0000           -0.5944132             -16.1748
         6        2.0000           -0.5727355             -15.5849
         7        2.0000           -0.4809572             -13.0875
         8        2.0000           -0.4771086             -12.9828
         9        1.0000           -0.4349370             -11.8352
        10        0.9987           -0.3374695              -9.1830 (HOMO)
        11        0.0013           -0.3249003              -8.8410 (LUMO)
        12                         -0.1698162              -4.6209
        13                         -0.1444785              -3.9315
        14                          0.1997085               5.4343
        15                          0.8012799              21.8039
        16                          1.1084100              30.1614
      -------------------------------------------------------------
                  HL-Gap            0.0125693 Eh            0.3420 eV

     #   Z        covCN         q      C6AA      Î±(0)
     1   6 C      0.984    -0.029    36.835    10.196
     2   6 C      1.962    -0.015    31.473     9.060
     3   6 C      1.840     0.230    25.784     8.203
     4   8 O      0.856    -0.185    17.829     5.661

Wiberg/Mayer (AO) data.
largest (>0.10) Wiberg bond orders for each atom
          total WBO             WBO to atom ...

molecular dipole:
                 x           y           z       tot (Debye)
 q only:        0.222      -0.009       0.105
   full:        0.319      -0.067       0.049       0.837

 projected vibrational frequencies (cm-1)
eigval :       -0.00    -0.00    -0.00     0.00     0.00     0.00
eigval :      194.61   283.15   365.53   986.97  1838.80  2132.45

   temp. (K)  partition function   enthalpy   heat capacity  entropy
                                   cal/mol     cal/K/mol   cal/K/mol   J/K/mol
  10.00  VIB   1.00                    0.000      0.000     -0.007
         ROT   43.3                   29.809      2.981     10.468
         INT   43.3                   29.809      2.981     10.460
         TR   0.223E+25               49.681      4.968     20.895
         TOT                          79.4904     7.9490    31.3550   131.1895

       T/K    H(0)-H(T)+PV         H(T)/Eh          T*S/Eh         G(T)/Eh
   ------------------------------------------------------------------------
    298.15    0.517244E-02    0.183893E-01    0.300476E-01   -0.116583E-01
    120.00    0.168122E-02    0.148980E-01    0.999192E-02    0.490611E-02
    100.00    0.135521E-02    0.145720E-01    0.802978E-02    0.654224E-02
     80.00    0.105132E-02    0.142681E-01    0.615300E-02    0.811513E-02
     60.00    0.770187E-03    0.139870E-01    0.437256E-02    0.961444E-02
     40.00    0.507565E-03    0.137244E-01    0.270240E-02    0.110220E-01
     20.00    0.253353E-03    0.134702E-01    0.117503E-02    0.122951E-01
     10.00    0.126676E-03    0.133435E-01    0.499674E-03    0.128438E-01 (used)
   ------------------------------------------------------------------------

         :::::::::::::::::::::::::::::::::::::::::::::::::::::
         ::                  THERMODYNAMIC                  ::
         :::::::::::::::::::::::::::::::::::::::::::::::::::::
         :: total free energy         -10.195060244621 Eh   ::
         ::.................................................::
         :: total energy              -10.207904056799 Eh   ::
         :: zero point energy           0.013216810389 Eh   ::
         :: G(RRHO) w/o ZPVE           -0.000372998210 Eh   ::
         :: G(RRHO) contrib.            0.012843812179 Eh   ::
         :::::::::::::::::::::::::::::::::::::::::::::::::::::

           -------------------------------------------------
          | TOTAL ENERGY              -10.207904056799 Eh   |
          | TOTAL ENTHALPY            -10.194560570395 Eh   |
          | TOTAL FREE ENERGY         -10.195060244621 Eh   |
          | GRADIENT NORM               0.000905028984 Eh/Î± |
          | HOMO-LUMO GAP               0.342026789604 eV   |
           -------------------------------------------------

 * finished run on 2020/05/12 at 11:45:18.684
