   * xtb version 6.2.2 (9d81278992624c895f80dd42a50cac0aa55982e2) compiled by '@Darwin' on 04/03/2020
          program call               : xtb --input C5_8_S_2.input C5_8_S_2.xyz --ohess --molden --namespace C5_8_S_2 output.out
          number of atoms            :                     5
          number of electrons        :                    20
          charge                     :                     0
          spin                       :                   1.0

   ID    Z sym.   atoms
    1    6 C      1-5

          :  Hamiltonian                  GFN2-xTB          :
 * total energy  :   -10.0815102 Eh     change        0.1582638E-08 Eh
 * total energy  :   -10.1168355 Eh     change       -0.3532535E-01 Eh
 * total energy  :   -10.1351157 Eh     change       -0.1828019E-01 Eh
 * total energy  :   -10.1565663 Eh     change       -0.2145056E-01 Eh
 * total energy  :   -10.1624920 Eh     change       -0.5925701E-02 Eh
 * total energy  :   -10.1705591 Eh     change       -0.8067080E-02 Eh
 * total energy  :   -10.1680215 Eh     change        0.2537584E-02 Eh
 * total energy  :   -10.1738121 Eh     change       -0.5790634E-02 Eh
 * total energy  :   -10.1752402 Eh     change       -0.1428108E-02 Eh
 * total energy  :   -10.1775926 Eh     change       -0.2352336E-02 Eh
 * total energy  :   -10.1781865 Eh     change       -0.5939161E-03 Eh
 * total energy  :   -10.1784378 Eh     change       -0.2513619E-03 Eh
 * total energy  :   -10.1785223 Eh     change       -0.8443256E-04 Eh
 * total energy  :   -10.1785702 Eh     change       -0.4796827E-04 Eh
 * total energy  :   -10.1785805 Eh     change       -0.1021577E-04 Eh
 * total energy  :   -10.1785817 Eh     change       -0.1270628E-05 Eh
   *** GEOMETRY OPTIMIZATION CONVERGED AFTER 16 ITERATIONS ***

 final structure:
================
5
 xtb: 6.2.2 (9d81278992624c895f80dd42a50cac0aa55982e2)
C         1.77617946550614   -0.20982115708317   -0.11154346535894
C         0.52399726362520   -0.06189030711108   -0.03252057861607
C        -1.20519721534166    0.14239465809599    0.07712120659072
C        -0.41411306079441    1.20459798230991    0.01304925192782
C        -0.68086645299528   -1.07528117621165    0.05389258545648

          :  Hamiltonian                  GFN2-xTB          :
         :: gradient norm              0.000620550842 Eh/a0 ::
         :: HOMO-LUMO gap              0.718155847740 eV    ::
         :: SCC energy               -10.377904779364 Eh    ::
         :: -> dispersion             -0.002897640180 Eh    ::
         :: repulsion energy           0.199322966126 Eh    ::

    * Orbital Energies and Occupations

         #    Occupation            Energy/Eh            Energy/eV
      -------------------------------------------------------------
         1        2.0000           -0.7368426             -20.0505
         2        2.0000           -0.6841708             -18.6172
         3        2.0000           -0.6580418             -17.9062
         4        2.0000           -0.5840720             -15.8934
         5        2.0000           -0.5559351             -15.1278
         6        2.0000           -0.5470868             -14.8870
         7        2.0000           -0.4916030             -13.3772
         8        2.0000           -0.4642641             -12.6333
         9        2.0000           -0.4599325             -12.5154
        10        1.0000           -0.4266881             -11.6108
        11        1.0000           -0.3893971             -10.5960 (HOMO)
        12        0.0000           -0.3630064              -9.8779 (LUMO)
        13                         -0.3233311              -8.7983
        14                         -0.2633697              -7.1667
        15                         -0.1897935              -5.1645
        16                         -0.0445059              -1.2111
        17                          0.0178378               0.4854
        18                          0.4587119              12.4822
        19                          0.5226784              14.2228
        20                          0.7445035              20.2590
      -------------------------------------------------------------
                  HL-Gap            0.0263906 Eh            0.7181 eV

     #   Z        covCN         q      C6AA      Î±(0)
     1   6 C      0.982    -0.114    39.567    10.566
     2   6 C      3.813     0.138    18.350     6.097
     3   6 C      2.856     0.106    25.661     8.303
     4   6 C      2.007    -0.065    32.784     9.247
     5   6 C      2.007    -0.065    32.784     9.247

Wiberg/Mayer (AO) data.
largest (>0.10) Wiberg bond orders for each atom
          total WBO             WBO to atom ...

molecular dipole:
                 x           y           z       tot (Debye)
 q only:       -0.352       0.042       0.023
   full:       -0.864       0.102       0.055       2.217

 projected vibrational frequencies (cm-1)
eigval :       -0.00    -0.00    -0.00     0.00     0.00     0.00
eigval :      247.24   328.73   376.35   388.38   452.18   685.42
eigval :     1418.93  1419.43  1782.53

   temp. (K)  partition function   enthalpy   heat capacity  entropy
                                   cal/mol     cal/K/mol   cal/K/mol   J/K/mol
  10.00  VIB   1.00                    0.000      0.000     -0.005
         ROT   107.                   29.809      2.981     12.273
         INT   107.                   29.809      2.981     12.268
         TR   0.277E+25               49.681      4.968     21.322
         TOT                          79.4904     7.9490    33.5904   140.5424

       T/K    H(0)-H(T)+PV         H(T)/Eh          T*S/Eh         G(T)/Eh
   ------------------------------------------------------------------------
    298.15    0.570248E-02    0.218756E-01    0.317395E-01   -0.986390E-02
    120.00    0.165705E-02    0.178302E-01    0.103751E-01    0.745508E-02
    100.00    0.133073E-02    0.175039E-01    0.834894E-02    0.915494E-02
     80.00    0.103506E-02    0.172082E-01    0.641574E-02    0.107925E-01
     60.00    0.764035E-03    0.169372E-01    0.457831E-02    0.123589E-01
     40.00    0.506874E-03    0.166800E-01    0.284387E-02    0.138362E-01
     20.00    0.253352E-03    0.164265E-01    0.124622E-02    0.151803E-01
     10.00    0.126676E-03    0.162998E-01    0.535298E-03    0.157645E-01 (used)
   ------------------------------------------------------------------------

         :::::::::::::::::::::::::::::::::::::::::::::::::::::
         ::                  THERMODYNAMIC                  ::
         :::::::::::::::::::::::::::::::::::::::::::::::::::::
         :: total free energy         -10.162817203794 Eh   ::
         ::.................................................::
         :: total energy              -10.178581732692 Eh   ::
         :: zero point energy           0.016173150502 Eh   ::
         :: G(RRHO) w/o ZPVE           -0.000408621604 Eh   ::
         :: G(RRHO) contrib.            0.015764528898 Eh   ::
         :::::::::::::::::::::::::::::::::::::::::::::::::::::

           -------------------------------------------------
          | TOTAL ENERGY              -10.178581732692 Eh   |
          | TOTAL ENTHALPY            -10.162281906175 Eh   |
          | TOTAL FREE ENERGY         -10.162817203794 Eh   |
          | GRADIENT NORM               0.000621364555 Eh/Î± |
          | HOMO-LUMO GAP               0.718126094593 eV   |
           -------------------------------------------------

 * finished run on 2020/05/12 at 11:44:35.040
