   * xtb version 6.2.2 (9d81278992624c895f80dd42a50cac0aa55982e2) compiled by '@Darwin' on 04/03/2020
          program call               : xtb --input C4N1_34_S_1.input C4N1_34_S_1.xyz --ohess --molden --namespace C4N1_34_S_1 output.out
          number of atoms            :                     5
          number of electrons        :                    21
          charge                     :                     0
          spin                       :                   0.5

   ID    Z sym.   atoms
    1    6 C      1, 3-5
    2    7 N      2

          :  Hamiltonian                  GFN2-xTB          :
 * total energy  :   -10.9619712 Eh     change        0.2124221E-09 Eh
 * total energy  :   -11.0093736 Eh     change       -0.4740249E-01 Eh
 * total energy  :   -11.0248716 Eh     change       -0.1549793E-01 Eh
 * total energy  :   -11.0386027 Eh     change       -0.1373109E-01 Eh
 * total energy  :   -11.0422640 Eh     change       -0.3661328E-02 Eh
 * total energy  :   -11.0448694 Eh     change       -0.2605455E-02 Eh
 * total energy  :   -11.0463252 Eh     change       -0.1455754E-02 Eh
 * total energy  :   -11.0474381 Eh     change       -0.1112906E-02 Eh
 * total energy  :   -11.0479196 Eh     change       -0.4815112E-03 Eh
 * total energy  :   -11.0483325 Eh     change       -0.4128906E-03 Eh
 * total energy  :   -11.0486661 Eh     change       -0.3335779E-03 Eh
 * total energy  :   -11.0490826 Eh     change       -0.4164969E-03 Eh
 * total energy  :   -11.0491759 Eh     change       -0.9328882E-04 Eh
 * total energy  :   -11.0492316 Eh     change       -0.5571463E-04 Eh
 * total energy  :   -11.0492560 Eh     change       -0.2436801E-04 Eh
 * total energy  :   -11.0492722 Eh     change       -0.1625029E-04 Eh
 * total energy  :   -11.0492742 Eh     change       -0.1975364E-05 Eh
   *** GEOMETRY OPTIMIZATION CONVERGED AFTER 17 ITERATIONS ***

 final structure:
================
5
 xtb: 6.2.2 (9d81278992624c895f80dd42a50cac0aa55982e2)
C        -1.37845693707075    0.39763909156266   -0.03479167574296
N        -0.56220139674897   -0.10794398142955    0.87465144339150
C         0.60808393429297   -0.05475725269342    0.07497123527477
C        -0.51933198372932   -0.41734051594644   -0.79985447844451
C         1.85190638325608    0.18240365850674   -0.11497552447881

          :  Hamiltonian                  GFN2-xTB          :
         :: gradient norm              0.000886861644 Eh/a0 ::
         :: HOMO-LUMO gap              1.099943923789 eV    ::
         :: SCC energy               -11.211390152729 Eh    ::
         :: -> dispersion             -0.002874891403 Eh    ::
         :: repulsion energy           0.162115939095 Eh    ::

    * Orbital Energies and Occupations

         #    Occupation            Energy/Eh            Energy/eV
      -------------------------------------------------------------
         1        2.0000           -0.7722621             -21.0143
         2        2.0000           -0.6988152             -19.0157
         3        2.0000           -0.6493117             -17.6687
         4        2.0000           -0.6447016             -17.5432
         5        2.0000           -0.5947108             -16.1829
         6        2.0000           -0.5645056             -15.3610
         7        2.0000           -0.5080049             -13.8235
         8        2.0000           -0.4928947             -13.4123
         9        2.0000           -0.4712777             -12.8241
        10        2.0000           -0.4555694             -12.3967
        11        1.0000           -0.4276553             -11.6371 (HOMO)
        12                         -0.3872333             -10.5372 (LUMO)
        13                         -0.3219604              -8.7610
        14                         -0.2941743              -8.0049
        15                         -0.2267245              -6.1695
        16                          0.0058255               0.1585
        17                          0.0809408               2.2025
        18                          0.1395474               3.7973
        19                          0.3791833              10.3181
        20                          0.7818838              21.2761
      -------------------------------------------------------------
                  HL-Gap            0.0404219 Eh            1.0999 eV

     #   Z        covCN         q      C6AA      Î±(0)
     1   6 C      2.298     0.032    28.862     8.720
     2   7 N      2.645    -0.067    22.552     7.053
     3   6 C      3.275     0.164    23.254     7.768
     4   6 C      2.787    -0.019    28.459     8.738
     5   6 C      0.983    -0.111    39.467    10.553

Wiberg/Mayer (AO) data.
largest (>0.10) Wiberg bond orders for each atom
          total WBO             WBO to atom ...

molecular dipole:
                 x           y           z       tot (Debye)
 q only:       -0.193      -0.002      -0.038
   full:       -0.400       0.060       0.253       1.213

 projected vibrational frequencies (cm-1)
eigval :       -0.00    -0.00    -0.00    -0.00    -0.00     0.00
eigval :      217.66   256.51   431.70   498.22   782.62   971.64
eigval :     1031.67  1426.46  1708.82

   temp. (K)  partition function   enthalpy   heat capacity  entropy
                                   cal/mol     cal/K/mol   cal/K/mol   J/K/mol
  10.00  VIB   1.00                    0.000      0.000     -0.006
         ROT   197.                   29.809      2.981     13.478
         INT   197.                   29.809      2.981     13.472
         TR   0.290E+25               49.681      4.968     21.419
         TOT                          79.4904     7.9490    34.8913   145.9853

       T/K    H(0)-H(T)+PV         H(T)/Eh          T*S/Eh         G(T)/Eh
   ------------------------------------------------------------------------
    298.15    0.545903E-02    0.221473E-01    0.320653E-01   -0.991800E-02
    120.00    0.167276E-02    0.183610E-01    0.106531E-01    0.770794E-02
    100.00    0.134770E-02    0.180359E-01    0.858161E-02    0.945433E-02
     80.00    0.104644E-02    0.177347E-01    0.659681E-02    0.111379E-01
     60.00    0.768026E-03    0.174563E-01    0.470776E-02    0.127485E-01
     40.00    0.507214E-03    0.171955E-01    0.292731E-02    0.142682E-01
     20.00    0.253352E-03    0.169416E-01    0.128771E-02    0.156539E-01
     10.00    0.126676E-03    0.168149E-01    0.556029E-03    0.162589E-01 (used)
   ------------------------------------------------------------------------

         :::::::::::::::::::::::::::::::::::::::::::::::::::::
         ::                  THERMODYNAMIC                  ::
         :::::::::::::::::::::::::::::::::::::::::::::::::::::
         :: total free energy         -11.033015286593 Eh   ::
         ::.................................................::
         :: total energy              -11.049274180923 Eh   ::
         :: zero point energy           0.016688246892 Eh   ::
         :: G(RRHO) w/o ZPVE           -0.000429352561 Eh   ::
         :: G(RRHO) contrib.            0.016258894330 Eh   ::
         :::::::::::::::::::::::::::::::::::::::::::::::::::::

           -------------------------------------------------
          | TOTAL ENERGY              -11.049274180923 Eh   |
          | TOTAL ENTHALPY            -11.032459258016 Eh   |
          | TOTAL FREE ENERGY         -11.033015286593 Eh   |
          | GRADIENT NORM               0.000886508518 Eh/Î± |
          | HOMO-LUMO GAP               1.099936347700 eV   |
           -------------------------------------------------

 * finished run on 2020/05/12 at 11:44:13.390
