   * xtb version 6.2.2 (9d81278992624c895f80dd42a50cac0aa55982e2) compiled by '@Darwin' on 04/03/2020
          program call               : xtb --input H1C3N1_28_S_0.input H1C3N1_28_S_0.xyz --ohess --molden --namespace H1C3N1_28_S_0 output.out
          number of atoms            :                     5
          number of electrons        :                    18
          charge                     :                     0
          spin                       :                   0.0

   ID    Z sym.   atoms
    1    6 C      1-3
    2    7 N      4
    3    1 H      5

          :  Hamiltonian                  GFN2-xTB          :
 * total energy  :    -9.4846299 Eh     change        0.1135007E-08 Eh
 * total energy  :    -9.5178414 Eh     change       -0.3321148E-01 Eh
 * total energy  :    -9.5314457 Eh     change       -0.1360434E-01 Eh
 * total energy  :    -9.5347860 Eh     change       -0.3340264E-02 Eh
 * total energy  :    -9.5373255 Eh     change       -0.2539470E-02 Eh
 * total energy  :    -9.5375276 Eh     change       -0.2021657E-03 Eh
 * total energy  :    -9.5377177 Eh     change       -0.1901063E-03 Eh
 * total energy  :    -9.5378831 Eh     change       -0.1653800E-03 Eh
 * total energy  :    -9.5379049 Eh     change       -0.2176962E-04 Eh
 * total energy  :    -9.5379056 Eh     change       -0.6787512E-06 Eh
   *** GEOMETRY OPTIMIZATION CONVERGED AFTER 10 ITERATIONS ***

 final structure:
================
5
 xtb: 6.2.2 (9d81278992624c895f80dd42a50cac0aa55982e2)
C         1.00768167343976   -0.38733578233418   -0.32179037235867
C         0.07138372985360   -1.03863396653934    0.49026782675123
C        -0.94523030528596   -0.52154335573266   -0.32176124477603
N        -0.03605024466321    0.52458205250705   -0.15049015093570
H        -0.09778385334419    1.42293105209914    0.30377394131917

          :  Hamiltonian                  GFN2-xTB          :
         :: gradient norm              0.000314936662 Eh/a0 ::
         :: HOMO-LUMO gap              3.245803597496 eV    ::
         :: SCC energy                -9.655993467365 Eh    ::
         :: -> dispersion             -0.002054468739 Eh    ::
         :: repulsion energy           0.118087869887 Eh    ::

    * Orbital Energies and Occupations

         #    Occupation            Energy/Eh            Energy/eV
      -------------------------------------------------------------
         1        2.0000           -0.7417638             -20.1844
         2        2.0000           -0.6529164             -17.7668
         3        2.0000           -0.6431030             -17.4997
         4        2.0000           -0.5943985             -16.1744
         5        2.0000           -0.5309063             -14.4467
         6        2.0000           -0.5196891             -14.1415
         7        2.0000           -0.4600059             -12.5174
         8        2.0000           -0.4275765             -11.6349
         9        2.0000           -0.4115143             -11.1979 (HOMO)
        10                         -0.2922332              -7.9521 (LUMO)
        11                         -0.2865470              -7.7973
        12                         -0.2536053              -6.9010
        13                         -0.0487261              -1.3259
        14                          0.0450511               1.2259
        15                          0.1996511               5.4328
        16                          0.2386602               6.4943
        17                          0.5081537              13.8276
      -------------------------------------------------------------
                  HL-Gap            0.1192811 Eh            3.2458 eV

     #   Z        covCN         q      C6AA      Î±(0)
     1   6 C      2.467    -0.089    30.543     9.022
     2   6 C      2.795    -0.020    28.485     8.743
     3   6 C      2.467    -0.089    30.543     9.022
     4   7 N      3.513     0.030    20.723     6.761
     5   1 H      0.860     0.169     1.282     1.773

Wiberg/Mayer (AO) data.
largest (>0.10) Wiberg bond orders for each atom
          total WBO             WBO to atom ...

molecular dipole:
                 x           y           z       tot (Debye)
 q only:       -0.046       0.674       0.178
   full:       -0.086       1.257       0.465       3.413

 projected vibrational frequencies (cm-1)
eigval :       -0.00     0.00     0.00     0.00     0.00     0.00
eigval :      536.24   581.48   729.82   852.13   984.02  1082.76
eigval :     1318.59  1432.43  3408.48

   temp. (K)  partition function   enthalpy   heat capacity  entropy
                                   cal/mol     cal/K/mol   cal/K/mol   J/K/mol
  10.00  VIB   1.00                    0.000      0.000     -0.000
         ROT   81.7                   29.809      2.981     11.731
         INT   81.7                   29.809      2.981     11.731
         TR   0.217E+25               49.681      4.968     20.838
         TOT                          79.4904     7.9490    32.5685   136.2664

       T/K    H(0)-H(T)+PV         H(T)/Eh          T*S/Eh         G(T)/Eh
   ------------------------------------------------------------------------
    298.15    0.439456E-02    0.292857E-01    0.291033E-01    0.182471E-03
    120.00    0.152726E-02    0.264184E-01    0.100126E-01    0.164058E-01
    100.00    0.126858E-02    0.261598E-01    0.810816E-02    0.180516E-01
     80.00    0.101365E-02    0.259048E-01    0.625908E-02    0.196457E-01
     60.00    0.760065E-03    0.256512E-01    0.447553E-02    0.211757E-01
     40.00    0.506704E-03    0.253979E-01    0.277829E-02    0.226196E-01
     20.00    0.253352E-03    0.251445E-01    0.121358E-02    0.239309E-01
     10.00    0.126676E-03    0.250179E-01    0.519011E-03    0.244988E-01 (used)
   ------------------------------------------------------------------------

         :::::::::::::::::::::::::::::::::::::::::::::::::::::
         ::                  THERMODYNAMIC                  ::
         :::::::::::::::::::::::::::::::::::::::::::::::::::::
         :: total free energy          -9.513406732739 Eh   ::
         ::.................................................::
         :: total energy               -9.537905572012 Eh   ::
         :: zero point energy           0.024891174583 Eh   ::
         :: G(RRHO) w/o ZPVE           -0.000392335309 Eh   ::
         :: G(RRHO) contrib.            0.024498839274 Eh   ::
         :::::::::::::::::::::::::::::::::::::::::::::::::::::

           -------------------------------------------------
          | TOTAL ENERGY               -9.537905572012 Eh   |
          | TOTAL ENTHALPY             -9.512887721414 Eh   |
          | TOTAL FREE ENERGY          -9.513406732739 Eh   |
          | GRADIENT NORM               0.000314995210 Eh/Î± |
          | HOMO-LUMO GAP               3.245802997967 eV   |
           -------------------------------------------------

 * finished run on 2020/05/12 at 11:45:01.269
