   * xtb version 6.2.2 (9d81278992624c895f80dd42a50cac0aa55982e2) compiled by '@Darwin' on 04/03/2020
          program call               : xtb --input H2C1N2_11_S_2.input H2C1N2_11_S_2.xyz --ohess --molden --namespace H2C1N2_11_S_2 output.out
          number of atoms            :                     5
          number of electrons        :                    16
          charge                     :                     0
          spin                       :                   1.0

   ID    Z sym.   atoms
    1    7 N      1, 3
    2    6 C      2
    3    1 H      4, 5

          :  Hamiltonian                  GFN2-xTB          :
 * total energy  :    -8.7577363 Eh     change        0.9427836E-09 Eh
 * total energy  :    -8.7711783 Eh     change       -0.1344195E-01 Eh
 * total energy  :    -8.7786663 Eh     change       -0.7488034E-02 Eh
 * total energy  :    -8.7798069 Eh     change       -0.1140613E-02 Eh
 * total energy  :    -8.7802367 Eh     change       -0.4297765E-03 Eh
 * total energy  :    -8.7803089 Eh     change       -0.7219943E-04 Eh
 * total energy  :    -8.7803163 Eh     change       -0.7363956E-05 Eh
 * total energy  :    -8.7803179 Eh     change       -0.1673369E-05 Eh
   *** GEOMETRY OPTIMIZATION CONVERGED AFTER 8 ITERATIONS ***

 final structure:
================
5
 xtb: 6.2.2 (9d81278992624c895f80dd42a50cac0aa55982e2)
N        -0.67785433350672   -0.00873470176511    0.29163356451964
C         0.69488855410955    0.07361309094855    0.32792434182149
N        -0.09588771053030    1.11110463532898   -0.22167617191665
H        -1.31755167001690   -0.61420028074176   -0.21183026927599
H         1.39640515994437   -0.56178274377066   -0.18605046514849

          :  Hamiltonian                  GFN2-xTB          :
         :: gradient norm              0.000407293261 Eh/a0 ::
         :: HOMO-LUMO gap              6.641223448940 eV    ::
         :: SCC energy                -8.861271670348 Eh    ::
         :: -> dispersion             -0.001453977943 Eh    ::
         :: repulsion energy           0.080953709107 Eh    ::

    * Orbital Energies and Occupations

         #    Occupation            Energy/Eh            Energy/eV
      -------------------------------------------------------------
         1        2.0000           -0.7201312             -19.5958
         2        2.0000           -0.6219644             -16.9245
         3        2.0000           -0.5971309             -16.2488
         4        2.0000           -0.5637548             -15.3405
         5        2.0000           -0.5054045             -13.7528
         6        2.0000           -0.4941732             -13.4471
         7        2.0000           -0.4328674             -11.7789
         8        1.0000           -0.3672853              -9.9943
         9        1.0000           -0.3246216              -8.8334 (HOMO)
        10                         -0.0805611              -2.1922 (LUMO)
        11                          0.0046746               0.1272
        12                          0.1251349               3.4051
        13                          0.1986072               5.4044
        14                          0.3910920              10.6422
      -------------------------------------------------------------
                  HL-Gap            0.2440605 Eh            6.6412 eV

     #   Z        covCN         q      C6AA      Î±(0)
     1   7 N      2.749    -0.030    21.825     6.939
     2   6 C      2.744     0.029    27.331     8.560
     3   7 N      1.888    -0.204    26.261     7.597
     4   1 H      0.860     0.164     1.310     1.793
     5   1 H      0.926     0.041     2.437     2.441

Wiberg/Mayer (AO) data.
largest (>0.10) Wiberg bond orders for each atom
          total WBO             WBO to atom ...

molecular dipole:
                 x           y           z       tot (Debye)
 q only:       -0.187      -0.657       0.007
   full:       -0.297      -1.151      -0.218       3.073

 projected vibrational frequencies (cm-1)
eigval :       -0.00    -0.00     0.00     0.00     0.00     0.00
eigval :      809.82   879.98   923.65   957.96  1065.28  1131.91
eigval :     1544.11  3034.42  3278.40

   temp. (K)  partition function   enthalpy   heat capacity  entropy
                                   cal/mol     cal/K/mol   cal/K/mol   J/K/mol
  10.00  VIB   1.00                    0.000      0.000     -0.000
         ROT   41.7                   29.809      2.981     10.392
         INT   41.7                   29.809      2.981     10.392
         TR   0.162E+25               49.681      4.968     20.259
         TOT                          79.4904     7.9490    30.6514   128.2454

       T/K    H(0)-H(T)+PV         H(T)/Eh          T*S/Eh         G(T)/Eh
   ------------------------------------------------------------------------
    298.15    0.405803E-02    0.350993E-01    0.277265E-01    0.737282E-02
    120.00    0.152057E-02    0.325618E-01    0.963824E-02    0.229236E-01
    100.00    0.126682E-02    0.323081E-01    0.780062E-02    0.245074E-01
     80.00    0.101341E-02    0.320547E-01    0.601438E-02    0.260403E-01
     60.00    0.760056E-03    0.318013E-01    0.429220E-02    0.275091E-01
     40.00    0.506704E-03    0.315479E-01    0.265607E-02    0.288919E-01
     20.00    0.253352E-03    0.312946E-01    0.115248E-02    0.301421E-01
     10.00    0.126676E-03    0.311679E-01    0.488461E-03    0.306795E-01 (used)
   ------------------------------------------------------------------------

         :::::::::::::::::::::::::::::::::::::::::::::::::::::
         ::                  THERMODYNAMIC                  ::
         :::::::::::::::::::::::::::::::::::::::::::::::::::::
         :: total free energy          -8.749638476597 Eh   ::
         ::.................................................::
         :: total energy               -8.780317934980 Eh   ::
         :: zero point energy           0.031041243286 Eh   ::
         :: G(RRHO) w/o ZPVE           -0.000361784903 Eh   ::
         :: G(RRHO) contrib.            0.030679458383 Eh   ::
         :::::::::::::::::::::::::::::::::::::::::::::::::::::

           -------------------------------------------------
          | TOTAL ENERGY               -8.780317934980 Eh   |
          | TOTAL ENTHALPY             -8.749150015679 Eh   |
          | TOTAL FREE ENERGY          -8.749638476597 Eh   |
          | GRADIENT NORM               0.000407321409 Eh/Î± |
          | HOMO-LUMO GAP               6.641224230603 eV   |
           -------------------------------------------------

 * finished run on 2020/05/12 at 11:45:23.800
