   * xtb version 6.2.2 (9d81278992624c895f80dd42a50cac0aa55982e2) compiled by '@Darwin' on 04/03/2020
          program call               : xtb --input C4N1_57_S_1.input C4N1_57_S_1.xyz --ohess --molden --namespace C4N1_57_S_1 output.out
          number of atoms            :                     5
          number of electrons        :                    21
          charge                     :                     0
          spin                       :                   0.5

   ID    Z sym.   atoms
    1    7 N      1
    2    6 C      2-5

          :  Hamiltonian                  GFN2-xTB          :
 * total energy  :   -10.9095879 Eh     change       -0.7753798E-11 Eh
 * total energy  :   -11.0361775 Eh     change       -0.1265897E+00 Eh
 * total energy  :   -11.0576562 Eh     change       -0.2147866E-01 Eh
 * total energy  :   -11.0620309 Eh     change       -0.4374709E-02 Eh
 * total energy  :   -11.0624670 Eh     change       -0.4361023E-03 Eh
 * total energy  :   -11.0625921 Eh     change       -0.1250984E-03 Eh
 * total energy  :   -11.0626658 Eh     change       -0.7370754E-04 Eh
 * total energy  :   -11.0626867 Eh     change       -0.2089747E-04 Eh
 * total energy  :   -11.0626919 Eh     change       -0.5195816E-05 Eh
 * total energy  :   -11.0626931 Eh     change       -0.1138702E-05 Eh
   *** GEOMETRY OPTIMIZATION CONVERGED AFTER 10 ITERATIONS ***

 final structure:
================
5
 xtb: 6.2.2 (9d81278992624c895f80dd42a50cac0aa55982e2)
N        -0.94318230343413   -0.12672959253259   -0.33226650187383
C        -0.13502465757695    0.99221622101531   -0.04605656038864
C         0.33221296288458   -0.49802991198498   -0.80401666107354
C         0.99031074520289    0.13302977523765    0.34887534214800
C        -0.24431574707640   -0.50048649173539    0.83346438118801

          :  Hamiltonian                  GFN2-xTB          :
         :: gradient norm              0.000475504320 Eh/a0 ::
         :: HOMO-LUMO gap              3.158297711047 eV    ::
         :: SCC energy               -11.178517969966 Eh    ::
         :: -> dispersion             -0.002327116189 Eh    ::
         :: repulsion energy           0.115824898099 Eh    ::

    * Orbital Energies and Occupations

         #    Occupation            Energy/Eh            Energy/eV
      -------------------------------------------------------------
         1        2.0000           -0.7941980             -21.6112
         2        2.0000           -0.6761208             -18.3982
         3        2.0000           -0.6646263             -18.0854
         4        2.0000           -0.6646243             -18.0853
         5        2.0000           -0.5599100             -15.2359
         6        2.0000           -0.5599037             -15.2358
         7        2.0000           -0.5314073             -14.4603
         8        2.0000           -0.4786514             -13.0248
         9        2.0000           -0.4698619             -12.7856
        10        2.0000           -0.4698606             -12.7856
        11        1.0000           -0.4286503             -11.6642 (HOMO)
        12                         -0.3125848              -8.5059 (LUMO)
        13                         -0.3125720              -8.5055
        14                         -0.2476767              -6.7396
        15                         -0.0013126              -0.0357
        16                         -0.0012853              -0.0350
        17                          0.0674820               1.8363
        18                          0.0674851               1.8364
        19                          0.0925115               2.5174
        20                          0.3672906               9.9945
      -------------------------------------------------------------
                  HL-Gap            0.1160655 Eh            3.1583 eV

     #   Z        covCN         q      C6AA      Î±(0)
     1   7 N      2.961     0.014    21.006     6.807
     2   6 C      3.691    -0.022    21.155     6.582
     3   6 C      3.691    -0.022    21.154     6.582
     4   6 C      3.169     0.052    26.474     8.406
     5   6 C      3.691    -0.022    21.154     6.582

Wiberg/Mayer (AO) data.
largest (>0.10) Wiberg bond orders for each atom
          total WBO             WBO to atom ...

molecular dipole:
                 x           y           z       tot (Debye)
 q only:        0.075       0.010       0.026
   full:        0.022       0.003       0.008       0.059

 projected vibrational frequencies (cm-1)
eigval :       -0.00    -0.00    -0.00     0.00     0.00     0.00
Refinement of some symmetry elements was terminated before convergence was reached.
Some symmetry elements may remain unidentified.
Molecule has the following symmetry elements: (C3) 3*(sigma)
It seems to be the C3v point group
eigval :      404.79   405.12   822.05   850.01   850.11  1040.04
eigval :     1040.76  1279.02  1395.03

   temp. (K)  partition function   enthalpy   heat capacity  entropy
                                   cal/mol     cal/K/mol   cal/K/mol   J/K/mol
  10.00  VIB   1.00                    0.000      0.000     -0.001
         ROT   43.0                   29.809      2.981     10.457
         INT   43.0                   29.809      2.981     10.456
         TR   0.290E+25               49.681      4.968     21.419
         TOT                          79.4904     7.9490    31.8752   133.3659

       T/K    H(0)-H(T)+PV         H(T)/Eh          T*S/Eh         G(T)/Eh
   ------------------------------------------------------------------------
    298.15    0.467129E-02    0.230947E-01    0.292122E-01   -0.611745E-02
    120.00    0.154960E-02    0.199730E-01    0.990746E-02    0.100656E-01
    100.00    0.127774E-02    0.197012E-01    0.800861E-02    0.116925E-01
     80.00    0.101595E-02    0.194394E-01    0.617341E-02    0.132660E-01
     60.00    0.760280E-03    0.191837E-01    0.440954E-02    0.147742E-01
     40.00    0.506706E-03    0.189301E-01    0.273413E-02    0.161960E-01
     20.00    0.253352E-03    0.186768E-01    0.119150E-02    0.174853E-01
     10.00    0.126676E-03    0.185501E-01    0.507964E-03    0.180421E-01 (used)
   ------------------------------------------------------------------------

         :::::::::::::::::::::::::::::::::::::::::::::::::::::
         ::                  THERMODYNAMIC                  ::
         :::::::::::::::::::::::::::::::::::::::::::::::::::::
         :: total free energy         -11.044650927285 Eh   ::
         ::.................................................::
         :: total energy              -11.062693057981 Eh   ::
         :: zero point energy           0.018423418405 Eh   ::
         :: G(RRHO) w/o ZPVE           -0.000381287709 Eh   ::
         :: G(RRHO) contrib.            0.018042130696 Eh   ::
         :::::::::::::::::::::::::::::::::::::::::::::::::::::

           -------------------------------------------------
          | TOTAL ENERGY              -11.062693057981 Eh   |
          | TOTAL ENTHALPY            -11.044142963561 Eh   |
          | TOTAL FREE ENERGY         -11.044650927285 Eh   |
          | GRADIENT NORM               0.000475561832 Eh/Î± |
          | HOMO-LUMO GAP               3.158302919108 eV   |
           -------------------------------------------------

 * finished run on 2020/05/12 at 11:44:24.059
