   * xtb version 6.2.2 (9d81278992624c895f80dd42a50cac0aa55982e2) compiled by '@Darwin' on 04/03/2020
          program call               : xtb --input C2N1_2_S_3.input C2N1_2_S_3.xyz --ohess --molden --namespace C2N1_2_S_3 output.out
          number of atoms            :                     3
          number of electrons        :                    13
          charge                     :                     0
          spin                       :                   1.5

   ID    Z sym.   atoms
    1    6 C      1, 3
    2    7 N      2

          :  Hamiltonian                  GFN2-xTB          :
 * total energy  :    -6.7768554 Eh     change       -0.8415491E-11 Eh
 * total energy  :    -6.7990982 Eh     change       -0.2224276E-01 Eh
 * total energy  :    -6.7986992 Eh     change        0.3989775E-03 Eh
 * total energy  :    -6.8014727 Eh     change       -0.2773568E-02 Eh
 * total energy  :    -6.8015169 Eh     change       -0.4411574E-04 Eh
 * total energy  :    -6.8015176 Eh     change       -0.6960472E-06 Eh
   *** GEOMETRY OPTIMIZATION CONVERGED AFTER 6 ITERATIONS ***

 final structure:
================
3
 xtb: 6.2.2 (9d81278992624c895f80dd42a50cac0aa55982e2)
C         0.71757941239930   -0.28961043502111    0.07040850845062
N        -0.71197098960757   -0.48738229368667   -0.06836040211535
C        -0.00560842279173    0.77699272870778   -0.00204810633527

          :  Hamiltonian                  GFN2-xTB          :
         :: gradient norm              0.000785581397 Eh/a0 ::
         :: HOMO-LUMO gap              2.184019332158 eV    ::
         :: SCC energy                -6.887535759985 Eh    ::
         :: -> dispersion             -0.000898364925 Eh    ::
         :: repulsion energy           0.086018204251 Eh    ::

    * Orbital Energies and Occupations

         #    Occupation            Energy/Eh            Energy/eV
      -------------------------------------------------------------
         1        2.0000           -0.7341995             -19.9786
         2        2.0000           -0.6065751             -16.5057
         3        2.0000           -0.5849285             -15.9167
         4        2.0000           -0.5532890             -15.0558
         5        2.0000           -0.4748456             -12.9212
         6        1.0000           -0.4556339             -12.3984
         7        1.0000           -0.4302838             -11.7086
         8        1.0000           -0.3674878              -9.9999 (HOMO)
         9                         -0.2872266              -7.8158 (LUMO)
        10                         -0.0936961              -2.5496
        11                          0.0396986               1.0803
        12                          0.5770289              15.7018
      -------------------------------------------------------------
                  HL-Gap            0.0802612 Eh            2.1840 eV

     #   Z        covCN         q      C6AA      Î±(0)
     1   6 C      1.888     0.077    29.175     8.724
     2   7 N      1.815    -0.155    25.130     7.427
     3   6 C      1.888     0.077    29.175     8.724

Wiberg/Mayer (AO) data.
largest (>0.10) Wiberg bond orders for each atom
          total WBO             WBO to atom ...

molecular dipole:
                 x           y           z       tot (Debye)
 q only:        0.312       0.214       0.030
   full:        0.509       0.348       0.049       1.572

 projected vibrational frequencies (cm-1)
eigval :       -0.00    -0.00    -0.00    -0.00     0.00     0.00
eigval :      -53.07  1167.21  1837.72

   temp. (K)  partition function   enthalpy   heat capacity  entropy
                                   cal/mol     cal/K/mol   cal/K/mol   J/K/mol
  10.00  VIB   1.00                    0.000      0.000     -0.000
         ROT   14.3                   29.809      2.981      8.268
         INT   14.3                   29.809      2.981      8.268
         TR   0.139E+25               49.681      4.968     19.961
         TOT                          79.4904     7.9490    28.2288   118.1094

       T/K    H(0)-H(T)+PV         H(T)/Eh          T*S/Eh         G(T)/Eh
   ------------------------------------------------------------------------
    298.15    0.379713E-02    0.106429E-01    0.262548E-01   -0.156119E-01
    120.00    0.152012E-02    0.836586E-02    0.917445E-02   -0.808592E-03
    100.00    0.126676E-02    0.811250E-02    0.741449E-02    0.698018E-03
     80.00    0.101341E-02    0.785915E-02    0.570552E-02    0.215363E-02
     60.00    0.760056E-03    0.760580E-02    0.406055E-02    0.354525E-02
     40.00    0.506704E-03    0.735245E-02    0.250165E-02    0.485080E-02
     20.00    0.253352E-03    0.709910E-02    0.107527E-02    0.602383E-02
     10.00    0.126676E-03    0.697242E-02    0.449855E-03    0.652256E-02 (used)
   ------------------------------------------------------------------------

         :::::::::::::::::::::::::::::::::::::::::::::::::::::
         ::                  THERMODYNAMIC                  ::
         :::::::::::::::::::::::::::::::::::::::::::::::::::::
         :: total free energy          -6.794994990724 Eh   ::
         ::.................................................::
         :: total energy               -6.801517554729 Eh   ::
         :: zero point energy           0.006845743073 Eh   ::
         :: G(RRHO) w/o ZPVE           -0.000323179068 Eh   ::
         :: G(RRHO) contrib.            0.006522564005 Eh   ::
         :::::::::::::::::::::::::::::::::::::::::::::::::::::

           -------------------------------------------------
          | TOTAL ENERGY               -6.801517554729 Eh   |
          | TOTAL ENTHALPY             -6.794545135640 Eh   |
          | TOTAL FREE ENERGY          -6.794994990724 Eh   |
          | GRADIENT NORM               0.000785577890 Eh/Î± |
          | HOMO-LUMO GAP               2.184019288453 eV   |
           -------------------------------------------------

 * finished run on 2020/05/12 at 11:43:54.169
