   * xtb version 6.2.2 (9d81278992624c895f80dd42a50cac0aa55982e2) compiled by '@Darwin' on 04/03/2020
          program call               : xtb --input H1C1O1_1_S_3.input H1C1O1_1_S_3.xyz --ohess --molden --namespace H1C1O1_1_S_3 output.out
          number of atoms            :                     3
          number of electrons        :                    11
          charge                     :                     0
          spin                       :                   1.5

   ID    Z sym.   atoms
    1    8 O      1
    2    6 C      2
    3    1 H      3

          :  Hamiltonian                  GFN2-xTB          :
 * total energy  :    -6.3717651 Eh     change       -0.1099752E-08 Eh
 * total energy  :    -6.3771594 Eh     change       -0.5394308E-02 Eh
 * total energy  :    -6.3781188 Eh     change       -0.9594031E-03 Eh
 * total energy  :    -6.3782695 Eh     change       -0.1506855E-03 Eh
 * total energy  :    -6.3782795 Eh     change       -0.9970990E-05 Eh
 * total energy  :    -6.3782808 Eh     change       -0.1349813E-05 Eh
   *** GEOMETRY OPTIMIZATION CONVERGED AFTER 6 ITERATIONS ***

 final structure:
================
3
 xtb: 6.2.2 (9d81278992624c895f80dd42a50cac0aa55982e2)
O         1.00980231815573   -0.18852096862918    0.00000000000000
C        -0.10405798310297    0.48867003310680    0.00000000000000
H        -0.90574433505277   -0.30014906447762    0.00000000000000

          :  Hamiltonian                  GFN2-xTB          :
         :: gradient norm              0.000513285515 Eh/a0 ::
         :: HOMO-LUMO gap             11.086086301040 eV    ::
         :: SCC energy                -6.408311588710 Eh    ::
         :: -> dispersion             -0.000416989639 Eh    ::
         :: repulsion energy           0.030030741510 Eh    ::

    * Orbital Energies and Occupations

         #    Occupation            Energy/Eh            Energy/eV
      -------------------------------------------------------------
         1        2.0000           -0.7274005             -19.7936
         2        2.0000           -0.6195017             -16.8575
         3        2.0000           -0.5647195             -15.3668
         4        2.0000           -0.5410944             -14.7239
         5        1.0000           -0.4985221             -13.5655
         6        1.0000           -0.3726802             -10.1411
         7        1.0000           -0.3047127              -8.2917 (HOMO)
         8                          0.1026935               2.7944 (LUMO)
         9                          0.2713695               7.3843
      -------------------------------------------------------------
                  HL-Gap            0.4074062 Eh           11.0861 eV

     #   Z        covCN         q      C6AA      Î±(0)
     1   8 O      0.855    -0.205    18.145     5.711
     2   6 C      1.774     0.027    30.544     8.935
     3   1 H      0.919     0.178     1.219     1.727

Wiberg/Mayer (AO) data.
largest (>0.10) Wiberg bond orders for each atom
          total WBO             WBO to atom ...

molecular dipole:
                 x           y           z       tot (Debye)
 q only:       -0.700      -0.003       0.000
   full:       -0.839       0.032       0.000       2.135

 projected vibrational frequencies (cm-1)
eigval :       -0.00    -0.00    -0.00    -0.00    -0.00     0.00
eigval :      972.29  1433.04  2498.47

   temp. (K)  partition function   enthalpy   heat capacity  entropy
                                   cal/mol     cal/K/mol   cal/K/mol   J/K/mol
  10.00  VIB   1.00                    0.000      0.000     -0.000
         ROT   6.41                   29.809      2.981      6.672
         INT   6.41                   29.809      2.981      6.672
         TR   0.929E+24               49.681      4.968     19.155
         TOT                          79.4904     7.9490    25.8273   108.0614

       T/K    H(0)-H(T)+PV         H(T)/Eh          T*S/Eh         G(T)/Eh
   ------------------------------------------------------------------------
    298.15    0.382439E-02    0.149961E-01    0.251471E-01   -0.101510E-01
    120.00    0.152015E-02    0.126919E-01    0.871524E-02    0.397661E-02
    100.00    0.126676E-02    0.124385E-01    0.703178E-02    0.540668E-02
     80.00    0.101341E-02    0.121851E-01    0.539936E-02    0.678575E-02
     60.00    0.760056E-03    0.119318E-01    0.383093E-02    0.810083E-02
     40.00    0.506704E-03    0.116784E-01    0.234856E-02    0.932984E-02
     20.00    0.253352E-03    0.114251E-01    0.998725E-03    0.104263E-01
     10.00    0.126676E-03    0.112984E-01    0.411584E-03    0.108868E-01 (used)
   ------------------------------------------------------------------------

         :::::::::::::::::::::::::::::::::::::::::::::::::::::
         ::                  THERMODYNAMIC                  ::
         :::::::::::::::::::::::::::::::::::::::::::::::::::::
         :: total free energy          -6.367394055417 Eh   ::
         ::.................................................::
         :: total energy               -6.378280846969 Eh   ::
         :: zero point energy           0.011171699745 Eh   ::
         :: G(RRHO) w/o ZPVE           -0.000284908193 Eh   ::
         :: G(RRHO) contrib.            0.010886791552 Eh   ::
         :::::::::::::::::::::::::::::::::::::::::::::::::::::

           -------------------------------------------------
          | TOTAL ENERGY               -6.378280846969 Eh   |
          | TOTAL ENTHALPY             -6.366982471208 Eh   |
          | TOTAL FREE ENERGY          -6.367394055417 Eh   |
          | GRADIENT NORM               0.000513261879 Eh/Î± |
          | HOMO-LUMO GAP              11.086085976316 eV   |
           -------------------------------------------------

 * finished run on 2020/05/12 at 11:44:24.794
