   * xtb version 6.2.2 (9d81278992624c895f80dd42a50cac0aa55982e2) compiled by '@Darwin' on 04/03/2020
          program call               : xtb --input C5_20_S_2.input C5_20_S_2.xyz --ohess --molden --namespace C5_20_S_2 output.out
          number of atoms            :                     5
          number of electrons        :                    20
          charge                     :                     0
          spin                       :                   1.0

   ID    Z sym.   atoms
    1    6 C      1-5

          :  Hamiltonian                  GFN2-xTB          :
 * total energy  :   -10.0849698 Eh     change        0.3354295E-10 Eh
 * total energy  :   -10.1616889 Eh     change       -0.7671904E-01 Eh
 * total energy  :   -10.1757851 Eh     change       -0.1409625E-01 Eh
 * total energy  :   -10.1776498 Eh     change       -0.1864645E-02 Eh
 * total energy  :   -10.1779577 Eh     change       -0.3079843E-03 Eh
 * total energy  :   -10.1781777 Eh     change       -0.2199785E-03 Eh
 * total energy  :   -10.1782573 Eh     change       -0.7957102E-04 Eh
 * total energy  :   -10.1782692 Eh     change       -0.1186457E-04 Eh
 * total energy  :   -10.1782696 Eh     change       -0.4544852E-06 Eh
   *** GEOMETRY OPTIMIZATION CONVERGED AFTER 9 ITERATIONS ***

 final structure:
================
5
 xtb: 6.2.2 (9d81278992624c895f80dd42a50cac0aa55982e2)
C        -0.29347319882662    0.72524550321886    0.59502189364217
C        -0.65982476870120   -0.48977901359416   -0.53997867308785
C         0.13102417878554    0.72031324717934   -0.81353070949956
C         0.95318929460975   -0.23529684339111   -0.05491238556886
C        -0.13091450586747   -0.72048389341293    0.81339987451410

          :  Hamiltonian                  GFN2-xTB          :
         :: gradient norm              0.000423042012 Eh/a0 ::
         :: HOMO-LUMO gap              3.469107052602 eV    ::
         :: SCC energy               -10.309700241628 Eh    ::
         :: -> dispersion             -0.002361011035 Eh    ::
         :: repulsion energy           0.131430617279 Eh    ::

    * Orbital Energies and Occupations

         #    Occupation            Energy/Eh            Energy/eV
      -------------------------------------------------------------
         1        2.0000           -0.7628811             -20.7591
         2        2.0000           -0.6564002             -17.8616
         3        2.0000           -0.6280601             -17.0904
         4        2.0000           -0.6279568             -17.0876
         5        2.0000           -0.5230144             -14.2319
         6        2.0000           -0.5230023             -14.2316
         7        2.0000           -0.4891882             -13.3115
         8        1.7891           -0.4621369             -12.5754
         9        1.7781           -0.4620754             -12.5737
        10        1.4328           -0.4606262             -12.5343
        11        1.0000           -0.4070305             -11.0759 (HOMO)
        12                         -0.2795432              -7.6068 (LUMO)
        13                         -0.2793379              -7.6012
        14                         -0.2314410              -6.2978
        15                          0.0171389               0.4664
        16                          0.0172954               0.4706
        17                          0.0627454               1.7074
        18                          0.0630909               1.7168
        19                          0.2241319               6.0989
        20                          0.3756720              10.2226
      -------------------------------------------------------------
                  HL-Gap            0.1274873 Eh            3.4691 eV

     #   Z        covCN         q      C6AA      Î±(0)
     1   6 C      3.806     0.005    20.486     6.443
     2   6 C      3.805     0.004    20.501     6.446
     3   6 C      3.090    -0.007    28.088     8.687
     4   6 C      3.805     0.004    20.504     6.446
     5   6 C      3.090    -0.007    28.088     8.687

Wiberg/Mayer (AO) data.
largest (>0.10) Wiberg bond orders for each atom
          total WBO             WBO to atom ...

molecular dipole:
                 x           y           z       tot (Debye)
 q only:       -0.001       0.001       0.001
   full:       -0.003       0.005       0.004       0.017

 projected vibrational frequencies (cm-1)
eigval :       -0.00    -0.00    -0.00     0.00     0.00     0.00
eigval :     -657.78  -655.15   460.15   461.09   747.77   748.81
eigval :      766.27  1301.43  1398.25

   temp. (K)  partition function   enthalpy   heat capacity  entropy
                                   cal/mol     cal/K/mol   cal/K/mol   J/K/mol
  10.00  VIB   1.00                    0.000      0.000     -0.001
         ROT   21.3                   29.809      2.981      9.061
         INT   21.3                   29.809      2.981      9.060
         TR   0.277E+25               49.681      4.968     21.322
         TOT                          79.4904     7.9490    30.3823   127.1197

       T/K    H(0)-H(T)+PV         H(T)/Eh          T*S/Eh         G(T)/Eh
   ------------------------------------------------------------------------
    298.15    0.458341E-02    0.179876E-01    0.283559E-01   -0.103683E-01
    120.00    0.153817E-02    0.149424E-01    0.960766E-02    0.533474E-02
    100.00    0.127252E-02    0.146768E-01    0.776441E-02    0.691234E-02
     80.00    0.101448E-02    0.144187E-01    0.598136E-02    0.843735E-02
     60.00    0.760123E-03    0.141643E-01    0.426659E-02    0.989776E-02
     40.00    0.506704E-03    0.139109E-01    0.263895E-02    0.112720E-01
     20.00    0.253352E-03    0.136576E-01    0.114391E-02    0.125137E-01
     10.00    0.126676E-03    0.135309E-01    0.484173E-03    0.130467E-01 (used)
   ------------------------------------------------------------------------

         :::::::::::::::::::::::::::::::::::::::::::::::::::::
         ::                  THERMODYNAMIC                  ::
         :::::::::::::::::::::::::::::::::::::::::::::::::::::
         :: total free energy         -10.165222884004 Eh   ::
         ::.................................................::
         :: total energy              -10.178269612942 Eh   ::
         :: zero point energy           0.013404226321 Eh   ::
         :: G(RRHO) w/o ZPVE           -0.000357497383 Eh   ::
         :: G(RRHO) contrib.            0.013046728938 Eh   ::
         :::::::::::::::::::::::::::::::::::::::::::::::::::::

           -------------------------------------------------
          | TOTAL ENERGY              -10.178269612942 Eh   |
          | TOTAL ENTHALPY            -10.164738710605 Eh   |
          | TOTAL FREE ENERGY         -10.165222884004 Eh   |
          | GRADIENT NORM               0.000427368973 Eh/Î± |
          | HOMO-LUMO GAP               3.469107145703 eV   |
           -------------------------------------------------

 * finished run on 2020/05/12 at 11:44:40.524
