 Gaussian 16, Revision B.01,

 --------------------------------------------------------
 #P M062X/cc-pvtz nosymm opt(noeigentest) optcyc=120 freq
 --------------------------------------------------------

 -----
 Title
 -----
 Symbolic Z-matrix:
 Charge =  0 Multiplicity = 1

 SCF Done:  E(RM062X) =  -40.5001862068     A.U. after    9 cycles
 SCF Done:  E(RM062X) =  -40.5014129093     A.U. after    9 cycles
 Optimization completed.
    -- Stationary point found.
 Normal termination of Gaussian 16 at Fri Sep 25 11:32:26 2020.

 -------------------------------------------------------------------
 #P Geom=AllCheck Guess=TCheck SCRF=Check GenChk RM062X/CC-pVTZ Freq
 -------------------------------------------------------------------

 Structure from the checkpoint file:  "input.chk"
 -----
 Title
 -----
 Charge =  0 Multiplicity = 1

 SCF Done:  E(RM062X) =  -40.5014129093     A.U. after    1 cycles

  Exact polarizability:  15.037  -0.000  15.010  -0.012   0.000  15.020
 Approx polarizability:  15.970  -0.000  15.971  -0.000   0.000  15.971

                      1                      2                      3
                      A                      A                      A
 Frequencies --   1338.3587              1339.7452              1339.7815
 Red. masses --      1.1793                 1.1792                 1.1792
 Frc consts  --      1.2445                 1.2471                 1.2471
 IR Inten    --     12.7055                12.6774                12.7205

                      4                      5                      6
                      A                      A                      A
 Frequencies --   1564.5948              1564.6064              3069.2527
 Red. masses --      1.0078                 1.0078                 1.0078
 Frc consts  --      1.4536                 1.4536                 5.5937
 IR Inten    --      0.0000                 0.0001                 0.0004

                      7                      8                      9
                      A                      A                      A
 Frequencies --   3182.9019              3183.2298              3183.7525
 Red. masses --      1.1014                 1.1015                 1.1014
 Frc consts  --      6.5744                 6.5759                 6.5778
 IR Inten    --     17.2998                17.1398                17.1670

 - Thermochemistry -
 -------------------
 Temperature   298.150 Kelvin.  Pressure   1.00000 Atm.
 Atom     1 has atomic number  6 and mass  12.00000

 Molecular mass:    16.03130 amu.
 Principal axes and moments of inertia in atomic units:
                           1         2         3
     Eigenvalues --    11.32963  11.32967  11.33008
           X           -0.01758  -0.48283   0.87554
           Y            0.99946  -0.03264   0.00207
           Z            0.02758   0.87511   0.48314
 This molecule is an asymmetric top.
 Rotational symmetry number  1.
 Rotational temperatures (Kelvin)      7.64490     7.64488     7.64460
 Rotational constants (GHZ):         159.29392   159.29339   159.28766
 Zero-point vibrational energy     118228.3 (Joules/Mol)
                                   28.25724 (Kcal/Mol)
 Vibrational temperatures:   1925.60  1927.59  1927.65  2251.10  2251.12
          (Kelvin)           4415.97  4579.49  4579.96  4580.71

 Zero-point correction=                           0.045031 (Hartree/Particle)
 Thermal correction to Energy=                    0.047899
 Thermal correction to Enthalpy=                  0.048844
 Thermal correction to Gibbs Free Energy=         0.025378
 Sum of electronic and zero-point Energies=            -40.456382
 Sum of electronic and thermal Energies=               -40.453513
 Sum of electronic and thermal Enthalpies=             -40.452569
 Sum of electronic and thermal Free Energies=          -40.476035

                     E (Thermal)             CV                S
                      KCal/Mol        Cal/Mol-Kelvin    Cal/Mol-Kelvin
 Total                   30.057              6.471             49.387
 Electronic               0.000              0.000              0.000
 Translational            0.889              2.981             34.261
 Rotational               0.889              2.981             15.039
 Vibrational             28.280              0.509              0.087

 Optimization completed.
    -- Stationary point found.
 Normal termination of Gaussian 16 at Fri Sep 25 11:32:47 2020.
 Gaussian 16:  ES64L-G16RevB.01 20-Dec-2017

 -----------------------------------------------
 #P CCSD(T)/aug-cc-pvtz geom=allcheck guess=read
 -----------------------------------------------

 Structure from the checkpoint file:  "input.chk"
 -----
 Title
 -----
 Charge =  0 Multiplicity = 1

                         Standard orientation:
 ---------------------------------------------------------------------
 Center     Atomic      Atomic             Coordinates (Angstroms)
 Number     Number       Type             X           Y           Z
 ---------------------------------------------------------------------
      1          6           0        0.000000    0.000003    0.000002
      2          1           0        0.029968    0.950823    0.524923
      3          1           0       -0.028001   -0.811546    0.721880
      4          1           0        0.885689   -0.098607   -0.621572
      5          1           0       -0.887656   -0.040688   -0.625244
 ---------------------------------------------------------------------

 SCF Done:  E(RHF) =  -40.2136501966     A.U. after    8 cycles
 E2 =    -0.2008086571D+00 EUMP2 =    -0.40414458853621D+02
 CCSD(T)
 CCSD(T)= -0.40440901151D+02

 The electronic state is 1-A.
 Alpha  occ. eigenvalues --  -11.20557  -0.94380  -0.54540  -0.54540  -0.54539
 Alpha virt. eigenvalues --    0.03081   0.05046   0.05046   0.05046   0.12398
 Alpha virt. eigenvalues --    0.12398   0.12398   0.14193   0.22306   0.22306
 Alpha virt. eigenvalues --    0.22835   0.22835   0.22835   0.32991   0.32991

 Mulliken charges:
               1
     1  C   -1.188179
     2  H    0.297051
     3  H    0.297045
     4  H    0.297042
     5  H    0.297042
 Sum of Mulliken charges =  -0.00000

 Dipole moment (field-independent basis, Debye):
    X=             -0.0000    Y=             -0.0000    Z=              0.0000  Tot=              0.0000
 Quadrupole moment (field-independent basis, Debye-Ang):
   XX=             -8.4095   YY=             -8.4095   ZZ=             -8.4097
   XY=              0.0000   XZ=              0.0000   YZ=              0.0000

 78\CCSD=-40.4343648\CCSD(T)=-40.4409012\RMSD=4.512e-09\PG=C01 [X(C1H4)
 Normal termination of Gaussian 16 at Fri Sep 25 11:33:35 2020.
