   * xtb version 6.2.2 (9d81278992624c895f80dd42a50cac0aa55982e2) compiled by '@Darwin' on 04/03/2020
          program call               : xtb --input C4N1_18_S_3.input C4N1_18_S_3.xyz --ohess --molden --namespace C4N1_18_S_3 output.out
          number of atoms            :                     5
          number of electrons        :                    21
          charge                     :                     0
          spin                       :                   1.5

   ID    Z sym.   atoms
    1    6 C      1-4
    2    7 N      5

          :  Hamiltonian                  GFN2-xTB          :
 * total energy  :   -10.9167242 Eh     change        0.6627445E-09 Eh
 * total energy  :   -10.9666640 Eh     change       -0.4993982E-01 Eh
 * total energy  :   -10.9039819 Eh     change        0.6268210E-01 Eh
 * total energy  :   -10.9908481 Eh     change       -0.8686619E-01 Eh
 * total energy  :   -10.9987524 Eh     change       -0.7904243E-02 Eh
 * total energy  :   -11.0036086 Eh     change       -0.4856221E-02 Eh
 * total energy  :   -11.0060239 Eh     change       -0.2415254E-02 Eh
 * total energy  :   -11.0082472 Eh     change       -0.2223390E-02 Eh
 * total energy  :   -11.0093446 Eh     change       -0.1097346E-02 Eh
 * total energy  :   -11.0099891 Eh     change       -0.6445453E-03 Eh
 * total energy  :   -11.0101417 Eh     change       -0.1525201E-03 Eh
 * total energy  :   -11.0101493 Eh     change       -0.7659177E-05 Eh
 * total energy  :   -11.0101550 Eh     change       -0.5656197E-05 Eh
 * total energy  :   -11.0101607 Eh     change       -0.5729657E-05 Eh
 * total energy  :   -11.0101608 Eh     change       -0.5577074E-07 Eh
   *** GEOMETRY OPTIMIZATION CONVERGED AFTER 15 ITERATIONS ***

 final structure:
================
5
 xtb: 6.2.2 (9d81278992624c895f80dd42a50cac0aa55982e2)
C        -0.50054024262723    0.94630409973875   -0.00375803455104
C         0.65484477765252   -0.03165850547832    0.03226429620316
C        -0.58708139214519   -0.89364034201886   -0.05279379504145
C         1.90935109229753   -0.09244048959794    0.09887239868358
N        -1.47657523517763    0.07143523735638   -0.07458586529425

          :  Hamiltonian                  GFN2-xTB          :
         :: gradient norm              0.000831342958 Eh/a0 ::
         :: HOMO-LUMO gap              1.293475535247 eV    ::
         :: SCC energy               -11.181721808042 Eh    ::
         :: -> dispersion             -0.002856587430 Eh    ::
         :: repulsion energy           0.171561034203 Eh    ::

    * Orbital Energies and Occupations

         #    Occupation            Energy/Eh            Energy/eV
      -------------------------------------------------------------
         1        2.0000           -0.7435930             -20.2342
         2        2.0000           -0.6853478             -18.6493
         3        2.0000           -0.6351605             -17.2836
         4        2.0000           -0.6218181             -16.9205
         5        2.0000           -0.5721054             -15.5678
         6        2.0000           -0.5640880             -15.3496
         7        2.0000           -0.4922418             -13.3946
         8        2.0000           -0.4836931             -13.1620
         9        2.0000           -0.4698597             -12.7855
        10        1.0000           -0.4364918             -11.8775
        11        1.0000           -0.4142876             -11.2733
        12        1.0000           -0.3679835             -10.0133 (HOMO)
        13                         -0.3204501              -8.7199 (LUMO)
        14                         -0.3184649              -8.6659
        15                         -0.1772901              -4.8243
        16                          0.0502670               1.3678
        17                          0.0781431               2.1264
        18                          0.2494825               6.7888
        19                          0.3486952               9.4885
        20                          0.8585318              23.3618
      -------------------------------------------------------------
                  HL-Gap            0.0475334 Eh            1.2934 eV

     #   Z        covCN         q      C6AA      Î±(0)
     1   6 C      2.669    -0.009    28.215     8.692
     2   6 C      3.070     0.101    25.690     8.311
     3   6 C      2.669    -0.009    28.215     8.692
     4   6 C      0.982    -0.059    37.748    10.320
     5   7 N      1.957    -0.025    22.418     7.021

Wiberg/Mayer (AO) data.
largest (>0.10) Wiberg bond orders for each atom
          total WBO             WBO to atom ...

molecular dipole:
                 x           y           z       tot (Debye)
 q only:        0.000      -0.000      -0.000
   full:       -0.043       0.002      -0.003       0.110

 projected vibrational frequencies (cm-1)
eigval :       -0.00    -0.00    -0.00     0.00     0.00     0.00
eigval :      221.79   284.06   305.39   359.17   623.05   899.76
eigval :      950.49  1495.73  1809.69

   temp. (K)  partition function   enthalpy   heat capacity  entropy
                                   cal/mol     cal/K/mol   cal/K/mol   J/K/mol
  10.00  VIB   1.00                    0.000      0.000     -0.007
         ROT   102.                   29.809      2.981     12.177
         INT   102.                   29.809      2.981     12.170
         TR   0.290E+25               49.681      4.968     21.419
         TOT                          79.4904     7.9490    33.5896   140.5387

       T/K    H(0)-H(T)+PV         H(T)/Eh          T*S/Eh         G(T)/Eh
   ------------------------------------------------------------------------
    298.15    0.576209E-02    0.215934E-01    0.319401E-01   -0.103467E-01
    120.00    0.170141E-02    0.175327E-01    0.104384E-01    0.709426E-02
    100.00    0.135937E-02    0.171906E-01    0.838735E-02    0.880329E-02
     80.00    0.104871E-02    0.168800E-01    0.643313E-02    0.104468E-01
     60.00    0.767677E-03    0.165989E-01    0.458283E-02    0.120161E-01
     40.00    0.507126E-03    0.163384E-01    0.284424E-02    0.134941E-01
     20.00    0.253352E-03    0.160846E-01    0.124623E-02    0.148384E-01
     10.00    0.126676E-03    0.159579E-01    0.535284E-03    0.154227E-01 (used)
   ------------------------------------------------------------------------

         :::::::::::::::::::::::::::::::::::::::::::::::::::::
         ::                  THERMODYNAMIC                  ::
         :::::::::::::::::::::::::::::::::::::::::::::::::::::
         :: total free energy         -10.994738101905 Eh   ::
         ::.................................................::
         :: total energy              -11.010160762231 Eh   ::
         :: zero point energy           0.015831268027 Eh   ::
         :: G(RRHO) w/o ZPVE           -0.000408607701 Eh   ::
         :: G(RRHO) contrib.            0.015422660326 Eh   ::
         :::::::::::::::::::::::::::::::::::::::::::::::::::::

           -------------------------------------------------
          | TOTAL ENERGY              -11.010160762231 Eh   |
          | TOTAL ENTHALPY            -10.994202818188 Eh   |
          | TOTAL FREE ENERGY         -10.994738101905 Eh   |
          | GRADIENT NORM               0.000832228251 Eh/Î± |
          | HOMO-LUMO GAP               1.293449825239 eV   |
           -------------------------------------------------

 * finished run on 2020/05/12 at 11:44:06.077
