   * xtb version 6.2.2 (9d81278992624c895f80dd42a50cac0aa55982e2) compiled by '@Darwin' on 04/03/2020
          program call               : xtb --input C4N1_17_S_1.input C4N1_17_S_1.xyz --ohess --molden --namespace C4N1_17_S_1 output.out
          number of atoms            :                     5
          number of electrons        :                    21
          charge                     :                     0
          spin                       :                   0.5

   ID    Z sym.   atoms
    1    6 C      1-3, 5
    2    7 N      4

          :  Hamiltonian                  GFN2-xTB          :
 * total energy  :   -10.9401993 Eh     change       -0.1138993E-08 Eh
 * total energy  :   -11.0372572 Eh     change       -0.9705790E-01 Eh
 * total energy  :   -11.0219455 Eh     change        0.1531164E-01 Eh
 * total energy  :   -11.0759973 Eh     change       -0.5405175E-01 Eh
 * total energy  :   -11.0796494 Eh     change       -0.3652101E-02 Eh
 * total energy  :   -11.0868454 Eh     change       -0.7196016E-02 Eh
 * total energy  :   -11.0905254 Eh     change       -0.3679937E-02 Eh
 * total energy  :   -11.0783127 Eh     change        0.1221263E-01 Eh
 * total energy  :   -11.0934131 Eh     change       -0.1510034E-01 Eh
 * total energy  :   -11.0936699 Eh     change       -0.2568296E-03 Eh
 * total energy  :   -11.0938675 Eh     change       -0.1975984E-03 Eh
 * total energy  :   -11.0940385 Eh     change       -0.1709739E-03 Eh
 * total energy  :   -11.0942165 Eh     change       -0.1780275E-03 Eh
 * total energy  :   -11.0942710 Eh     change       -0.5450850E-04 Eh
 * total energy  :   -11.0943049 Eh     change       -0.3390488E-04 Eh
 * total energy  :   -11.0943127 Eh     change       -0.7804320E-05 Eh
 * total energy  :   -11.0943147 Eh     change       -0.1947908E-05 Eh
   *** GEOMETRY OPTIMIZATION CONVERGED AFTER 17 ITERATIONS ***

 final structure:
================
5
 xtb: 6.2.2 (9d81278992624c895f80dd42a50cac0aa55982e2)
C        -0.49569228733599    0.79547506177390   -0.01621155491410
C         0.75175217372543   -0.01689818214985    0.00712049025084
C        -0.53123262664383   -0.77235012462920    0.00493443945326
N         1.93890886126057   -0.04369486609917    0.02082007234311
C        -1.66373612100619    0.03746811110432   -0.01666344713312

          :  Hamiltonian                  GFN2-xTB          :
         :: gradient norm              0.000483782701 Eh/a0 ::
         :: HOMO-LUMO gap              2.215073512330 eV    ::
         :: SCC energy               -11.281986030905 Eh    ::
         :: -> dispersion             -0.002731095050 Eh    ::
         :: repulsion energy           0.187671410582 Eh    ::

    * Orbital Energies and Occupations

         #    Occupation            Energy/Eh            Energy/eV
      -------------------------------------------------------------
         1        2.0000           -0.7508629             -20.4320
         2        2.0000           -0.7036476             -19.1472
         3        2.0000           -0.6493246             -17.6690
         4        2.0000           -0.6210941             -16.9008
         5        2.0000           -0.5784451             -15.7403
         6        2.0000           -0.5638308             -15.3426
         7        2.0000           -0.5026248             -13.6771
         8        2.0000           -0.4946862             -13.4611
         9        2.0000           -0.4688896             -12.7591
        10        1.7722           -0.4462664             -12.1435
        11        1.2278           -0.4439468             -12.0804 (HOMO)
        12                         -0.3625445              -9.8653 (LUMO)
        13                         -0.3312146              -9.0128
        14                         -0.2606631              -7.0930
        15                         -0.2003346              -5.4514
        16                          0.0713316               1.9410
        17                          0.0970071               2.6397
        18                          0.1707699               4.6469
        19                          0.3995638              10.8727
        20                          0.8517686              23.1778
      -------------------------------------------------------------
                  HL-Gap            0.0814023 Eh            2.2151 eV

     #   Z        covCN         q      C6AA      Î±(0)
     1   6 C      2.928     0.021    27.529     8.605
     2   6 C      2.879     0.193    23.897     8.014
     3   6 C      2.928     0.021    27.529     8.605
     4   7 N      0.911    -0.183    24.968     7.227
     5   6 C      1.974    -0.052    32.474     9.203

Wiberg/Mayer (AO) data.
largest (>0.10) Wiberg bond orders for each atom
          total WBO             WBO to atom ...

molecular dipole:
                 x           y           z       tot (Debye)
 q only:       -0.274       0.006      -0.003
   full:       -0.187       0.004      -0.003       0.476

 projected vibrational frequencies (cm-1)
eigval :       -0.00    -0.00     0.00     0.00     0.00     0.00
eigval :     -825.88   188.75   340.42   530.03   568.53   760.27
eigval :      943.34  1466.51  1936.12

   temp. (K)  partition function   enthalpy   heat capacity  entropy
                                   cal/mol     cal/K/mol   cal/K/mol   J/K/mol
  10.00  VIB   1.00                    0.000      0.000     -0.007
         ROT   95.6                   29.809      2.981     12.042
         INT   95.6                   29.809      2.981     12.035
         TR   0.290E+25               49.681      4.968     21.419
         TOT                          79.4904     7.9490    33.4548   139.9751

       T/K    H(0)-H(T)+PV         H(T)/Eh          T*S/Eh         G(T)/Eh
   ------------------------------------------------------------------------
    298.15    0.525131E-02    0.205924E-01    0.310548E-01   -0.104624E-01
    120.00    0.165408E-02    0.169952E-01    0.103590E-01    0.663613E-02
    100.00    0.134132E-02    0.166824E-01    0.834776E-02    0.833464E-02
     80.00    0.104695E-02    0.163880E-01    0.641581E-02    0.997222E-02
     60.00    0.769917E-03    0.161110E-01    0.457311E-02    0.115379E-01
     40.00    0.507681E-03    0.158488E-01    0.283637E-02    0.130124E-01
     20.00    0.253353E-03    0.155944E-01    0.124195E-02    0.143525E-01
     10.00    0.126676E-03    0.154678E-01    0.533137E-03    0.149346E-01 (used)
   ------------------------------------------------------------------------

         :::::::::::::::::::::::::::::::::::::::::::::::::::::
         ::                  THERMODYNAMIC                  ::
         :::::::::::::::::::::::::::::::::::::::::::::::::::::
         :: total free energy         -11.079380036660 Eh   ::
         ::.................................................::
         :: total energy              -11.094314659667 Eh   ::
         :: zero point energy           0.015341083839 Eh   ::
         :: G(RRHO) w/o ZPVE           -0.000406460833 Eh   ::
         :: G(RRHO) contrib.            0.014934623007 Eh   ::
         :::::::::::::::::::::::::::::::::::::::::::::::::::::

           -------------------------------------------------
          | TOTAL ENERGY              -11.094314659667 Eh   |
          | TOTAL ENTHALPY            -11.078846899811 Eh   |
          | TOTAL FREE ENERGY         -11.079380036660 Eh   |
          | GRADIENT NORM               0.000484183367 Eh/Î± |
          | HOMO-LUMO GAP               2.215069750735 eV   |
           -------------------------------------------------

 * finished run on 2020/05/12 at 11:44:05.455
