   * xtb version 6.2.2 (9d81278992624c895f80dd42a50cac0aa55982e2) compiled by '@Darwin' on 04/03/2020
          program call               : xtb --input C4N1_16_S_3.input C4N1_16_S_3.xyz --ohess --molden --namespace C4N1_16_S_3 output.out
          number of atoms            :                     5
          number of electrons        :                    21
          charge                     :                     0
          spin                       :                   1.5

   ID    Z sym.   atoms
    1    6 C      1, 3-5
    2    7 N      2

          :  Hamiltonian                  GFN2-xTB          :
 * total energy  :   -10.8944481 Eh     change       -0.6704930E-09 Eh
 * total energy  :   -10.9360349 Eh     change       -0.4158679E-01 Eh
 * total energy  :   -10.9424710 Eh     change       -0.6436126E-02 Eh
 * total energy  :   -10.9660429 Eh     change       -0.2357192E-01 Eh
 * total energy  :   -10.9729959 Eh     change       -0.6952927E-02 Eh
 * total energy  :   -10.9776666 Eh     change       -0.4670719E-02 Eh
 * total energy  :   -10.9796406 Eh     change       -0.1973993E-02 Eh
 * total energy  :   -10.9819636 Eh     change       -0.2323002E-02 Eh
 * total energy  :   -10.9827403 Eh     change       -0.7766906E-03 Eh
 * total energy  :   -10.9829029 Eh     change       -0.1625894E-03 Eh
 * total energy  :   -10.9829376 Eh     change       -0.3471123E-04 Eh
 * total energy  :   -10.9829560 Eh     change       -0.1848615E-04 Eh
 * total energy  :   -10.9829910 Eh     change       -0.3494598E-04 Eh
 * total energy  :   -10.9830143 Eh     change       -0.2329770E-04 Eh
 * total energy  :   -10.9830219 Eh     change       -0.7583935E-05 Eh
 * total energy  :   -10.9830241 Eh     change       -0.2213597E-05 Eh
   *** GEOMETRY OPTIMIZATION CONVERGED AFTER 16 ITERATIONS ***

 final structure:
================
5
 xtb: 6.2.2 (9d81278992624c895f80dd42a50cac0aa55982e2)
C        -0.45794244236068    0.94768566129847   -0.06938482616175
N         0.62964580743615   -0.02520693252543   -0.00925499995579
C        -0.53154867504479   -0.91097050828740   -0.01518512448147
C         1.85005089520751   -0.07420364775885   -0.03251978914126
C        -1.49020558523820    0.06269542727322    0.12634573974027

          :  Hamiltonian                  GFN2-xTB          :
         :: gradient norm              0.000962401476 Eh/a0 ::
         :: HOMO-LUMO gap              1.134097212496 eV    ::
         :: SCC energy               -11.139725798359 Eh    ::
         :: -> dispersion             -0.002909885255 Eh    ::
         :: repulsion energy           0.156701699810 Eh    ::

    * Orbital Energies and Occupations

         #    Occupation            Energy/Eh            Energy/eV
      -------------------------------------------------------------
         1        2.0000           -0.7458842             -20.2965
         2        2.0000           -0.7151927             -19.4614
         3        2.0000           -0.6456453             -17.5689
         4        2.0000           -0.6300096             -17.1434
         5        2.0000           -0.5927114             -16.1285
         6        2.0000           -0.5760130             -15.6741
         7        2.0000           -0.4941889             -13.4476
         8        2.0000           -0.4812328             -13.0950
         9        2.0000           -0.4681221             -12.7383
        10        1.0000           -0.4176151             -11.3639
        11        1.0000           -0.4062404             -11.0544
        12        1.0000           -0.3668097              -9.9814 (HOMO)
        13                         -0.3251325              -8.8473 (LUMO)
        14                         -0.3145700              -8.5599
        15                         -0.2002637              -5.4495
        16                         -0.0153068              -0.4165
        17                          0.0247822               0.6744
        18                          0.2174604               5.9174
        19                          0.4200530              11.4302
        20                          0.7182643              19.5450
      -------------------------------------------------------------
                  HL-Gap            0.0416771 Eh            1.1341 eV

     #   Z        covCN         q      C6AA      Î±(0)
     1   6 C      2.645    -0.044    29.068     8.820
     2   7 N      2.874     0.164    18.492     6.387
Molecule has the following symmetry elements: (sigma)
It seems to be the Cs point group
     3   6 C      2.645    -0.044    29.068     8.820
     4   6 C      0.916    -0.098    38.552    10.394
     5   6 C      2.110     0.022    30.290     8.893

Wiberg/Mayer (AO) data.
largest (>0.10) Wiberg bond orders for each atom
          total WBO             WBO to atom ...

molecular dipole:
                 x           y           z       tot (Debye)
 q only:       -0.128       0.006       0.015
   full:       -0.283       0.011       0.009       0.721

 projected vibrational frequencies (cm-1)
eigval :       -0.00    -0.00    -0.00     0.00     0.00     0.00
eigval :       48.34   211.86   374.92   406.91   648.54   879.16
eigval :      922.20  1462.46  1715.59

   temp. (K)  partition function   enthalpy   heat capacity  entropy
                                   cal/mol     cal/K/mol   cal/K/mol   J/K/mol
  10.00  VIB   1.00                    0.132      0.092      0.108
         ROT   192.                   29.809      2.981     13.427
         INT   192.                   29.941      3.073     13.535
         TR   0.290E+25               49.681      4.968     21.419
         TOT                          79.6224     8.0409    34.9546   146.2499

       T/K    H(0)-H(T)+PV         H(T)/Eh          T*S/Eh         G(T)/Eh
   ------------------------------------------------------------------------
    298.15    0.604581E-02    0.212411E-01    0.335948E-01   -0.123537E-01
    120.00    0.191814E-02    0.171134E-01    0.111451E-01    0.596836E-02
    100.00    0.154748E-02    0.167428E-01    0.896441E-02    0.777836E-02
     80.00    0.119753E-02    0.163928E-01    0.687315E-02    0.951967E-02
     60.00    0.867117E-03    0.160624E-01    0.488232E-02    0.111801E-01
     40.00    0.554142E-03    0.157494E-01    0.301096E-02    0.127385E-01
     20.00    0.260372E-03    0.154557E-01    0.130540E-02    0.141503E-01
     10.00    0.126886E-03    0.153222E-01    0.557036E-03    0.147651E-01 (used)
   ------------------------------------------------------------------------

         :::::::::::::::::::::::::::::::::::::::::::::::::::::
         ::                  THERMODYNAMIC                  ::
         :::::::::::::::::::::::::::::::::::::::::::::::::::::
         :: total free energy         -10.968258942662 Eh   ::
         ::.................................................::
         :: total energy              -10.983024088161 Eh   ::
         :: zero point energy           0.015195295540 Eh   ::
         :: G(RRHO) w/o ZPVE           -0.000430150041 Eh   ::
         :: G(RRHO) contrib.            0.014765145499 Eh   ::
         :::::::::::::::::::::::::::::::::::::::::::::::::::::

           -------------------------------------------------
          | TOTAL ENERGY              -10.983024088161 Eh   |
          | TOTAL ENTHALPY            -10.967701906300 Eh   |
          | TOTAL FREE ENERGY         -10.968258942662 Eh   |
          | GRADIENT NORM               0.000962218348 Eh/Î± |
          | HOMO-LUMO GAP               1.134092597475 eV   |
           -------------------------------------------------

 * finished run on 2020/05/12 at 11:44:05.211
