 Gaussian 16, Revision B.01,

 --------------------------------------------------------
 #P M062X/cc-pvtz nosymm opt(noeigentest) optcyc=120 freq
 --------------------------------------------------------

 -----
 Title
 -----
 Symbolic Z-matrix:
 Charge =  0 Multiplicity = 2

 SCF Done:  E(UM062X) =  -39.8140034275     A.U. after   12 cycles
 SCF Done:  E(UM062X) =  -39.8221016789     A.U. after   13 cycles
 SCF Done:  E(UM062X) =  -39.8242364960     A.U. after   13 cycles
 SCF Done:  E(UM062X) =  -39.8246268783     A.U. after   12 cycles
 SCF Done:  E(UM062X) =  -39.8246704034     A.U. after   12 cycles
 SCF Done:  E(UM062X) =  -39.8246775902     A.U. after    8 cycles
 SCF Done:  E(UM062X) =  -39.8246786376     A.U. after    7 cycles
 Optimization completed.
    -- Stationary point found.
 Normal termination of Gaussian 16 at Fri Oct  2 21:28:44 2020.

 -------------------------------------------------------------------
 #P Geom=AllCheck Guess=TCheck SCRF=Check GenChk UM062X/CC-pVTZ Freq
 -------------------------------------------------------------------

 Structure from the checkpoint file:  "input.chk"
 -----
 Title
 -----
 Charge =  0 Multiplicity = 2

 SCF Done:  E(UM062X) =  -39.8246786376     A.U. after    1 cycles

  Exact polarizability:  13.096  -1.322  11.596  -0.517  -0.952  13.495
 Approx polarizability:  13.426  -1.232  12.002  -0.502  -0.871  13.781

                      1                      2                      3
                      A                      A                      A
 Frequencies --    410.0273              1411.3951              1413.3654
 Red. masses --      1.2356                 1.1017                 1.1017
 Frc consts  --      0.1224                 1.2930                 1.2966
 IR Inten    --     68.0896                 3.2830                 3.3203

                      4                      5                      6
                      A                      A                      A
 Frequencies --   3141.5515              3319.3226              3321.3192
 Red. masses --      1.0078                 1.1188                 1.1187
 Frc consts  --      5.8604                 7.2625                 7.2711
 IR Inten    --      0.0007                 2.3008                 2.1965

 - Thermochemistry -
 -------------------
 Temperature   298.150 Kelvin.  Pressure   1.00000 Atm.
 Atom     1 has atomic number  6 and mass  12.00000

 Molecular mass:    15.02348 amu.
 Principal axes and moments of inertia in atomic units:
                           1         2         3
     Eigenvalues --     6.25599   6.25638  12.51236
           X            0.62956  -0.61776   0.47119
           Y           -0.57597   0.03594   0.81668
           Z            0.52145   0.78554   0.33319
 This molecule is an asymmetric top.
 Rotational symmetry number  1.
 Rotational temperatures (Kelvin)     13.84496    13.84408     6.92227
 Rotational constants (GHZ):         288.48211   288.46391   144.23665
 Zero-point vibrational energy      77858.8 (Joules/Mol)
                                   18.60871 (Kcal/Mol)
 Warning -- explicit consideration of   1 degrees of freedom as
           vibrations may cause significant error
 Vibrational temperatures:    589.94  2030.68  2033.52  4519.99  4775.76
          (Kelvin)           4778.64

 Zero-point correction=                           0.029655 (Hartree/Particle)
 Thermal correction to Energy=                    0.032801
 Thermal correction to Enthalpy=                  0.033745
 Thermal correction to Gibbs Free Energy=         0.009816
 Sum of electronic and zero-point Energies=            -39.795024
 Sum of electronic and thermal Energies=               -39.791877
 Sum of electronic and thermal Enthalpies=             -39.790933
 Sum of electronic and thermal Free Energies=          -39.814862

                     E (Thermal)             CV                S
                      KCal/Mol        Cal/Mol-Kelvin    Cal/Mol-Kelvin
 Total                   20.583              7.613             50.363
 Electronic               0.000              0.000              1.377
 Translational            0.889              2.981             34.068
 Rotational               0.889              2.981             13.957
 Vibrational             18.806              1.652              0.961
 Vibration     1          0.774              1.448              0.927

 Optimization completed.
    -- Stationary point found.
 Normal termination of Gaussian 16 at Fri Oct  2 21:28:59 2020.
 Gaussian 16:  ES64L-G16RevB.01 20-Dec-2017

 -------------------------------------------------
 #P ROCCSD(T)/aug-cc-pvtz geom=allcheck guess=read
 -------------------------------------------------

 Structure from the checkpoint file:  "input.chk"
 -----
 Title
 -----
 Charge =  0 Multiplicity = 2

                         Standard orientation:
 ---------------------------------------------------------------------
 Center     Atomic      Atomic             Coordinates (Angstroms)
 Number     Number       Type             X           Y           Z
 ---------------------------------------------------------------------
      1          6           0       -0.000006    0.000000   -0.000285
      2          1           0       -0.595263   -0.896942    0.000569
      3          1           0       -0.479148    0.963978    0.000569
      4          1           0        1.074449   -0.067037    0.000569
 ---------------------------------------------------------------------

 SCF Done:  E(ROHF) =  -39.5735122117     A.U. after   13 cycles
 E2 =    -0.1652686767D+00 EUMP2 =    -0.39738780888391D+02
 CCSD(T)
 CCSD(T)= -0.39763630791D+02

 The electronic state is 2-A.
 Alpha  occ. eigenvalues --  -11.23392  -0.94229  -0.58559  -0.58558  -0.37395
 Alpha virt. eigenvalues --    0.03064   0.04804   0.04804   0.09394   0.13088
 Alpha virt. eigenvalues --    0.13088   0.14150   0.21957   0.21957   0.23462
 Alpha virt. eigenvalues --    0.26833   0.26833   0.32969   0.33646   0.33646

 Mulliken charges and spin densities:
               1          2
     1  C   -1.327166   0.936142
     2  H    0.442409   0.021286
     3  H    0.442409   0.021286
     4  H    0.442348   0.021286
 Sum of Mulliken charges =  -0.00000   1.00000

 Dipole moment (field-independent basis, Debye):
    X=             -0.0000    Y=              0.0000    Z=              0.0019  Tot=              0.0019
 Quadrupole moment (field-independent basis, Debye-Ang):
   XX=             -7.2142   YY=             -7.2143   ZZ=             -9.1028
   XY=              0.0000   XZ=             -0.0000   YZ=              0.0000

 39.7387809\MP4SDQ=-39.7583672\CCSD=-39.7585809\CCSD(T)=-39.7636308\RMS
 Normal termination of Gaussian 16 at Fri Oct  2 21:29:50 2020.
