   * xtb version 6.2.2 (9d81278992624c895f80dd42a50cac0aa55982e2) compiled by '@Darwin' on 04/03/2020
          program call               : xtb --input H2O2_0_S_0.input H2O2_0_S_0.xyz --ohess --molden --namespace H2O2_0_S_0 output.out
          number of atoms            :                     4
          number of electrons        :                    14
          charge                     :                     0
          spin                       :                   0.0

   ID    Z sym.   atoms
    1    8 O      1, 2
    2    1 H      3, 4

          :  Hamiltonian                  GFN2-xTB          :
 * total energy  :    -9.0449501 Eh     change        0.6388490E-10 Eh
 * total energy  :    -9.0513161 Eh     change       -0.6365957E-02 Eh
 * total energy  :    -9.0524711 Eh     change       -0.1154995E-02 Eh
 * total energy  :    -9.0529323 Eh     change       -0.4612605E-03 Eh
 * total energy  :    -9.0532141 Eh     change       -0.2818234E-03 Eh
 * total energy  :    -9.0534712 Eh     change       -0.2570923E-03 Eh
 * total energy  :    -9.0538971 Eh     change       -0.4258813E-03 Eh
 * total energy  :    -9.0541901 Eh     change       -0.2929907E-03 Eh
 * total energy  :    -9.0538420 Eh     change        0.3481086E-03 Eh
 * total energy  :    -9.0544049 Eh     change       -0.5628598E-03 Eh
 * total energy  :    -9.0544838 Eh     change       -0.7890224E-04 Eh
 * total energy  :    -9.0545049 Eh     change       -0.2117147E-04 Eh
 * total energy  :    -9.0546046 Eh     change       -0.9969085E-04 Eh
 * total energy  :    -9.0546414 Eh     change       -0.3678571E-04 Eh
 * total energy  :    -9.0546603 Eh     change       -0.1889794E-04 Eh
 * total energy  :    -9.0546680 Eh     change       -0.7707456E-05 Eh
 * total energy  :    -9.0546695 Eh     change       -0.1502044E-05 Eh
   *** GEOMETRY OPTIMIZATION CONVERGED AFTER 17 ITERATIONS ***

 final structure:
================
4
 xtb: 6.2.2 (9d81278992624c895f80dd42a50cac0aa55982e2)
O         0.63295634893396   -0.03328394522340    0.32079679525306
O        -0.63296019147955    0.03306912045448   -0.32081052542035
H         1.24114207814672    0.00240754996854   -0.42797521713311
H        -1.24113723560114   -0.00219172519963    0.42798894730040

          :  Hamiltonian                  GFN2-xTB          :
         :: gradient norm              0.000576843498 Eh/a0 ::
         :: HOMO-LUMO gap              7.582381060617 eV    ::
         :: SCC energy                -9.087416575128 Eh    ::
         :: -> dispersion             -0.000468525173 Eh    ::
         :: repulsion energy           0.032747058082 Eh    ::

    * Orbital Energies and Occupations

         #    Occupation            Energy/Eh            Energy/eV
      -------------------------------------------------------------
         1        2.0000           -0.7241952             -19.7064
         2        2.0000           -0.6962332             -18.9455
         3        2.0000           -0.6154080             -16.7461
         4        2.0000           -0.5977261             -16.2650
         5        2.0000           -0.5465951             -14.8736
         6        2.0000           -0.5157374             -14.0339
         7        2.0000           -0.4282196             -11.6524 (HOMO)
         8                         -0.1495722              -4.0701 (LUMO)
         9                          0.1144302               3.1138
        10                          0.1569291               4.2703
      -------------------------------------------------------------
                  HL-Gap            0.2786474 Eh            7.5824 eV

     #   Z        covCN         q      C6AA      Î±(0)
     1   8 O      1.736    -0.324    19.406     5.948
     2   8 O      1.736    -0.324    19.406     5.948
     3   1 H      0.805     0.324     0.653     1.270
     4   1 H      0.805     0.324     0.653     1.270

Wiberg/Mayer (AO) data.
largest (>0.10) Wiberg bond orders for each atom
          total WBO             WBO to atom ...

molecular dipole:
Molecule has the following symmetry elements: (i) (C2) (sigma)
It seems to be the C2h point group
                 x           y           z       tot (Debye)
 q only:        0.000       0.000       0.000
   full:        0.000       0.000       0.000       0.001

 projected vibrational frequencies (cm-1)
eigval :       -0.00    -0.00    -0.00     0.00     0.00     0.00
eigval :      241.74  1108.05  1155.32  1354.98  3541.41  3544.82

   temp. (K)  partition function   enthalpy   heat capacity  entropy
                                   cal/mol     cal/K/mol   cal/K/mol   J/K/mol
  10.00  VIB   1.00                    0.000      0.000     -0.003
         ROT   5.60                   29.809      2.981      6.403
         INT   5.60                   29.809      2.981      6.401
         TR   0.118E+25               49.681      4.968     19.628
         TOT                          79.4904     7.9490    26.0292   108.9063

       T/K    H(0)-H(T)+PV         H(T)/Eh          T*S/Eh         G(T)/Eh
   ------------------------------------------------------------------------
    298.15    0.432817E-02    0.292657E-01    0.261003E-01    0.316539E-02
    120.00    0.158437E-02    0.265219E-01    0.884032E-02    0.176816E-01
    100.00    0.130184E-02    0.262394E-01    0.710955E-02    0.191299E-01
     80.00    0.102784E-02    0.259654E-01    0.544328E-02    0.205221E-01
     60.00    0.763411E-03    0.257010E-01    0.385447E-02    0.218465E-01
     40.00    0.506888E-03    0.254445E-01    0.236180E-02    0.230827E-01
     20.00    0.253352E-03    0.251909E-01    0.100520E-02    0.241857E-01
     10.00    0.126676E-03    0.250642E-01    0.414802E-03    0.246494E-01 (used)
   ------------------------------------------------------------------------

         :::::::::::::::::::::::::::::::::::::::::::::::::::::
         ::                  THERMODYNAMIC                  ::
         :::::::::::::::::::::::::::::::::::::::::::::::::::::
         :: total free energy          -9.030020077735 Eh   ::
         ::.................................................::
         :: total energy               -9.054669517930 Eh   ::
         :: zero point energy           0.024937566399 Eh   ::
         :: G(RRHO) w/o ZPVE           -0.000288126204 Eh   ::
         :: G(RRHO) contrib.            0.024649440195 Eh   ::
         :::::::::::::::::::::::::::::::::::::::::::::::::::::

           -------------------------------------------------
          | TOTAL ENERGY               -9.054669517930 Eh   |
          | TOTAL ENTHALPY             -9.029605275515 Eh   |
          | TOTAL FREE ENERGY          -9.030020077735 Eh   |
          | GRADIENT NORM               0.000576834215 Eh/Î± |
          | HOMO-LUMO GAP               7.582381102932 eV   |
           -------------------------------------------------

 * finished run on 2020/05/12 at 11:43:54.994
