 Gaussian 16, Revision B.01,

 ----------------------------------------------------------------
 #P M062X/cc-pvtz nosymm opt(noeigentest) optcyc=120 freq scf=xqc
 ----------------------------------------------------------------

 -----
 Title
 -----
 Symbolic Z-matrix:
 Charge =  0 Multiplicity = 1

 SCF Done:  E(RM062X) =  -341.660740634     A.U. after   18 cycles
 SCF Done:  E(RM062X) =  -341.666891391     A.U. after   15 cycles
 SCF Done:  E(RM062X) =  -341.667138799     A.U. after   12 cycles
 SCF Done:  E(RM062X) =  -341.667140401     A.U. after   10 cycles
 SCF Done:  E(RM062X) =  -341.667141232     A.U. after   10 cycles
 SCF Done:  E(RM062X) =  -341.667143075     A.U. after   10 cycles
 Optimization completed.
    -- Stationary point found.
 Normal termination of Gaussian 16 at Mon Oct 12 17:20:46 2020.

 -------------------------------------------------------------------
 #P Geom=AllCheck Guess=TCheck SCRF=Check GenChk RM062X/CC-pVTZ Freq
 -------------------------------------------------------------------

 Structure from the checkpoint file:  "input.chk"
 -----
 Title
 -----
 Charge =  0 Multiplicity = 1

 SCF Done:  E(RM062X) =  -341.667143075     A.U. after    1 cycles

  Exact polarizability:  38.214   0.000  38.214   0.220   0.000 318.479
 Approx polarizability:  47.710  -0.000  47.709   0.448   0.000 641.644

                      1                      2                      3
                      A                      A                      A
 Frequencies --     46.2060               118.7391               119.2252
 Red. masses --     12.8748                12.1744                12.2610
 Frc consts  --      0.0162                 0.1011                 0.1027
 IR Inten    --      2.1669                 2.9092                 2.4611

                      4                      5                      6
                      A                      A                      A
 Frequencies --    216.3362               216.3823               509.1491
 Red. masses --     12.0355                12.0282                12.0235
 Frc consts  --      0.3319                 0.3318                 1.8364
 IR Inten    --      2.0763                 2.0033                 1.2689

                      7                      8                      9
                      A                      A                      A
 Frequencies --    509.9219               510.7050               570.4201
 Red. masses --     12.0109                12.8523                12.0030
 Frc consts  --      1.8401                 1.9750                 2.3011
 IR Inten    --      1.4083                 0.8534                 9.9540

                     10                     11                     12
                      A                      A                      A
 Frequencies --    570.5172               582.4709               582.6460
 Red. masses --     12.0042                12.4355                12.4685
 Frc consts  --      2.3021                 2.4858                 2.4939
 IR Inten    --     10.1368                30.2580                30.3108

                     13                     14                     15
                      A                      A                      A
 Frequencies --   1007.0627              1480.6445              1950.7622
 Red. masses --     12.5652                12.3601                12.2115
 Frc consts  --      7.5081                15.9652                27.3797
 IR Inten    --      9.6645                68.9783               269.9867

                     16                     17                     18
                      A                      A                      A
 Frequencies --   2172.0973              2256.2784              2384.9934
 Red. masses --     12.2558                12.0205                12.3645
 Frc consts  --     34.0682                36.0545                41.4382
 IR Inten    --   5875.0091              6795.9116              1561.5355

 - Thermochemistry -
 -------------------
 Temperature   298.150 Kelvin.  Pressure   1.00000 Atm.
 Atom     1 has atomic number  6 and mass  12.00000

 Molecular mass:    99.99491 amu.
 Principal axes and moments of inertia in atomic units:
                           1         2         3
     Eigenvalues --     0.000623136.082703136.08332
           X            0.00092   1.00000   0.00001
           Y           -0.00000  -0.00001   1.00000
           Z            1.00000  -0.00092  -0.00000
 This molecule is an asymmetric top.
 Rotational symmetry number  1.
 Rotational temperatures (Kelvin) 140761.75398     0.02762     0.02762
 Rotational constants (GHZ):      ************     0.57548     0.57548
 Zero-point vibrational energy      94532.2 (Joules/Mol)
                                   22.59375 (Kcal/Mol)
 Warning -- explicit consideration of  12 degrees of freedom as
           vibrations may cause significant error
 Vibrational temperatures:     66.48   170.84   171.54   311.26   311.33
          (Kelvin)            732.55   733.66   734.79   820.71   820.85
                              838.05   838.30  1448.94  2130.32  2806.71
                             3125.16  3246.28  3431.47

 Zero-point correction=                           0.036005 (Hartree/Particle)
 Thermal correction to Energy=                    0.043536
 Thermal correction to Enthalpy=                  0.044481
 Thermal correction to Gibbs Free Energy=         0.008686
 Sum of electronic and zero-point Energies=           -341.631138
 Sum of electronic and thermal Energies=              -341.623607
 Sum of electronic and thermal Enthalpies=            -341.622663
 Sum of electronic and thermal Free Energies=         -341.658457

                     E (Thermal)             CV                S
                      KCal/Mol        Cal/Mol-Kelvin    Cal/Mol-Kelvin
 Total                   27.319             23.929             75.335
 Electronic               0.000              0.000              0.000
 Translational            0.889              2.981             39.718
 Rotational               0.889              2.981             16.455
 Vibrational             25.542             17.968             19.162
 Vibration     1          0.595              1.979              4.973
 Vibration     2          0.609              1.934              3.121
 Vibration     3          0.609              1.933              3.113
 Vibration     4          0.645              1.816              1.990
 Vibration     5          0.645              1.816              1.989
 Vibration     6          0.864              1.230              0.636
 Vibration     7          0.865              1.228              0.634
 Vibration     8          0.866              1.226              0.632
 Vibration     9          0.927              1.095              0.503
 Vibration    10          0.927              1.095              0.503
 Vibration    11          0.939              1.069              0.481
 Vibration    12          0.939              1.069              0.480

 Optimization completed.
    -- Stationary point found.
 Normal termination of Gaussian 16 at Mon Oct 12 17:22:10 2020.
 Gaussian 16:  ES64L-G16RevB.01 20-Dec-2017

 -----------------------------------------------
 #P CCSD(T)/aug-cc-pvtz geom=allcheck guess=read
 -----------------------------------------------

 Structure from the checkpoint file:  "input.chk"
 -----
 Title
 -----
 Charge =  0 Multiplicity = 1

                         Standard orientation:
 ---------------------------------------------------------------------
 Center     Atomic      Atomic             Coordinates (Angstroms)
 Number     Number       Type             X           Y           Z
 ---------------------------------------------------------------------
      1          6           0        3.350468    0.000457    0.000000
      2          6           0        2.056854   -0.000364    0.000000
      3          6           0        0.797925   -0.001442    0.000000
      4          6           0       -0.484506   -0.001634    0.000000
      5          6           0       -1.743918   -0.001378    0.000000
      6          6           0       -3.029671    0.000230    0.000000
      7          8           0       -4.177620    0.001809    0.000000
      8          6           0        4.623010    0.001719    0.000000
 ---------------------------------------------------------------------

 SCF Done:  E(RHF) =  -339.751774500     A.U. after   13 cycles
 E2 =    -0.1281942854D+01 EUMP2 =    -0.34103371735371D+03
 CCSD(T)
 CCSD(T)= -0.34109066357D+03

 The electronic state is 1-A.
 Alpha  occ. eigenvalues --  -20.69099 -11.45975 -11.40052 -11.38182 -11.30255
 Alpha  occ. eigenvalues --  -11.29208 -11.28159 -11.23172  -1.54132  -1.17843
 Alpha  occ. eigenvalues --   -1.12957  -1.06256  -0.98866  -0.90384  -0.83674
 Alpha  occ. eigenvalues --   -0.79088  -0.69365  -0.69365  -0.56814  -0.56814
 Alpha  occ. eigenvalues --   -0.47657  -0.47657  -0.46493  -0.34875  -0.34875
 Alpha virt. eigenvalues --   -0.04182  -0.04182   0.03484   0.04814   0.05743
 Alpha virt. eigenvalues --    0.05743   0.06663   0.08383   0.08593   0.08593
 Alpha virt. eigenvalues --    0.10007   0.10007   0.11522   0.12102   0.12102

 Mulliken charges:
               1
     1  C    0.338987
     2  C    0.338786
     3  C    0.080327
     4  C   -0.143955
     5  C    0.850201
     6  C   -0.140022
     7  O   -0.410800
     8  C   -0.913523
 Sum of Mulliken charges =  -0.00000

 Dipole moment (field-independent basis, Debye):
    X=             -4.9334    Y=             -0.0028    Z=              0.0000  Tot=              4.9334
 Quadrupole moment (field-independent basis, Debye-Ang):
   XX=            -70.7603   YY=            -44.3468   ZZ=            -44.3468
   XY=             -0.0054   XZ=              0.0000   YZ=             -0.0000

 955024\CCSD(T)=-341.0906636\RMSD=3.827e-09\PG=C01 [X(C7O1)]\\@
 Normal termination of Gaussian 16 at Mon Oct 12 18:53:42 2020.
