   * xtb version 6.2.2 (9d81278992624c895f80dd42a50cac0aa55982e2) compiled by '@Darwin' on 04/03/2020
          program call               : xtb --input C3N1_3_S_3.input C3N1_3_S_3.xyz --ohess --molden --namespace C3N1_3_S_3 output.out
          number of atoms            :                     4
          number of electrons        :                    17
          charge                     :                     0
          spin                       :                   1.5

   ID    Z sym.   atoms
    1    6 C      1, 3, 4
    2    7 N      2

          :  Hamiltonian                  GFN2-xTB          :
 * total energy  :    -8.8154359 Eh     change        0.8017231E-10 Eh
 * total energy  :    -8.8923860 Eh     change       -0.7695011E-01 Eh
 * total energy  :    -8.9062333 Eh     change       -0.1384737E-01 Eh
 * total energy  :    -8.9196833 Eh     change       -0.1344992E-01 Eh
 * total energy  :    -8.9216490 Eh     change       -0.1965782E-02 Eh
 * total energy  :    -8.9213293 Eh     change        0.3197726E-03 Eh
 * total energy  :    -8.9228218 Eh     change       -0.1492519E-02 Eh
 * total energy  :    -8.9232569 Eh     change       -0.4351569E-03 Eh
 * total energy  :    -8.9235897 Eh     change       -0.3327524E-03 Eh
 * total energy  :    -8.9237056 Eh     change       -0.1158959E-03 Eh
 * total energy  :    -8.9238475 Eh     change       -0.1418745E-03 Eh
 * total energy  :    -8.9239821 Eh     change       -0.1346371E-03 Eh
 * total energy  :    -8.9240255 Eh     change       -0.4337271E-04 Eh
 * total energy  :    -8.9240575 Eh     change       -0.3197423E-04 Eh
 * total energy  :    -8.9240142 Eh     change        0.4330097E-04 Eh
 * total energy  :    -8.9240763 Eh     change       -0.6215039E-04 Eh
 * total energy  :    -8.9240817 Eh     change       -0.5396106E-05 Eh
 * total energy  :    -8.9240855 Eh     change       -0.3791843E-05 Eh
   *** GEOMETRY OPTIMIZATION CONVERGED AFTER 18 ITERATIONS ***

 final structure:
================
4
 xtb: 6.2.2 (9d81278992624c895f80dd42a50cac0aa55982e2)
C        -1.81191945264750   -0.03939062071114   -0.12694499814742
N        -0.60173808254590   -0.01704508504320    0.18243068106998
C         0.57825206765377    0.08207081781670   -0.21977246108333
C         1.83540546753964   -0.02563511206236    0.16428777816077

          :  Hamiltonian                  GFN2-xTB          :
         :: gradient norm              0.000847520836 Eh/a0 ::
         :: HOMO-LUMO gap              0.321520290099 eV    ::
         :: SCC energy                -9.074685825205 Eh    ::
         :: -> dispersion             -0.001826847945 Eh    ::
         :: repulsion energy           0.150600417337 Eh    ::

    * Orbital Energies and Occupations

         #    Occupation            Energy/Eh            Energy/eV
      -------------------------------------------------------------
         1        2.0000           -0.7225343             -19.6612
         2        2.0000           -0.6922851             -18.8380
         3        2.0000           -0.6483919             -17.6436
         4        2.0000           -0.5793781             -15.7657
         5        2.0000           -0.5758519             -15.6697
         6        2.0000           -0.4871712             -13.2566
         7        2.0000           -0.4800713             -13.0634
         8        1.0000           -0.4578200             -12.4579
         9        1.0000           -0.4331542             -11.7867
        10        0.9980           -0.3366558              -9.1609 (HOMO)
        11        0.0020           -0.3248401              -8.8394 (LUMO)
        12                         -0.2332069              -6.3459
        13                         -0.1974030              -5.3716
        14                          0.1502802               4.0893
        15                          0.5595130              15.2251
        16                          0.8318954              22.6370
      -------------------------------------------------------------
                  HL-Gap            0.0118156 Eh            0.3215 eV

     #   Z        covCN         q      C6AA      Î±(0)
     1   6 C      0.928    -0.101    38.739    10.426
     2   7 N      1.824     0.086    20.396     6.692
     3   6 C      1.909     0.118    28.188     8.574
     4   6 C      0.984    -0.103    39.228    10.522

Wiberg/Mayer (AO) data.
largest (>0.10) Wiberg bond orders for each atom
          total WBO             WBO to atom ...

molecular dipole:
                 x           y           z       tot (Debye)
 q only:        0.019       0.028      -0.028
   full:        0.082       0.084      -0.113       0.413

 projected vibrational frequencies (cm-1)
eigval :       -0.00    -0.00    -0.00     0.00     0.00     0.00
eigval :       23.02   229.65   471.15  1102.39  1406.51  1716.70

   temp. (K)  partition function   enthalpy   heat capacity  entropy
                                   cal/mol     cal/K/mol   cal/K/mol   J/K/mol
  10.00  VIB   1.04                    2.489      0.856      0.900
         ROT   52.2                   29.809      2.981     10.842
         INT   54.2                   32.298      3.836     11.742
         TR   0.210E+25               49.681      4.968     20.778
         TOT                          81.9795     8.8046    32.5203   136.0650

       T/K    H(0)-H(T)+PV         H(T)/Eh          T*S/Eh         G(T)/Eh
   ------------------------------------------------------------------------
    298.15    0.546556E-02    0.167412E-01    0.312117E-01   -0.144705E-01
    120.00    0.192889E-02    0.132045E-01    0.105878E-01    0.261672E-02
    100.00    0.157624E-02    0.128519E-01    0.852912E-02    0.432275E-02
     80.00    0.123547E-02    0.125111E-01    0.654582E-02    0.596528E-02
     60.00    0.906715E-03    0.121823E-01    0.465106E-02    0.753129E-02
     40.00    0.588361E-03    0.118640E-01    0.286549E-02    0.899850E-02
     20.00    0.278099E-03    0.115537E-01    0.123430E-02    0.103194E-01
     10.00    0.130643E-03    0.114063E-01    0.518244E-03    0.108880E-01 (used)
   ------------------------------------------------------------------------

         :::::::::::::::::::::::::::::::::::::::::::::::::::::
         ::                  THERMODYNAMIC                  ::
         :::::::::::::::::::::::::::::::::::::::::::::::::::::
         :: total free energy          -8.913197467176 Eh   ::
         ::.................................................::
         :: total energy               -8.924085494050 Eh   ::
         :: zero point energy           0.011275628450 Eh   ::
         :: G(RRHO) w/o ZPVE           -0.000387601576 Eh   ::
         :: G(RRHO) contrib.            0.010888026874 Eh   ::
         :::::::::::::::::::::::::::::::::::::::::::::::::::::

           -------------------------------------------------
          | TOTAL ENERGY               -8.924085494050 Eh   |
          | TOTAL ENTHALPY             -8.912679222972 Eh   |
          | TOTAL FREE ENERGY          -8.913197467176 Eh   |
          | GRADIENT NORM               0.000847107656 Eh/Î± |
          | HOMO-LUMO GAP               0.321519332031 eV   |
           -------------------------------------------------

 * finished run on 2020/05/12 at 11:45:04.910
