   * xtb version 6.2.2 (9d81278992624c895f80dd42a50cac0aa55982e2) compiled by '@Darwin' on 04/03/2020
          program call               : xtb --input H1C4_7_S_1.input H1C4_7_S_1.xyz --ohess --molden --namespace H1C4_7_S_1 output.out
          number of atoms            :                     5
          number of electrons        :                    17
          charge                     :                     0
          spin                       :                   0.5

   ID    Z sym.   atoms
    1    6 C      1-4
    2    1 H      5

          :  Hamiltonian                  GFN2-xTB          :
 * total energy  :    -8.6234859 Eh     change        0.3507541E-09 Eh
 * total energy  :    -8.6855846 Eh     change       -0.6209863E-01 Eh
 * total energy  :    -8.6963510 Eh     change       -0.1076642E-01 Eh
 * total energy  :    -8.7152048 Eh     change       -0.1885378E-01 Eh
 * total energy  :    -8.7159745 Eh     change       -0.7697144E-03 Eh
 * total energy  :    -8.7162623 Eh     change       -0.2878023E-03 Eh
 * total energy  :    -8.7164089 Eh     change       -0.1465722E-03 Eh
 * total energy  :    -8.7164847 Eh     change       -0.7586122E-04 Eh
 * total energy  :    -8.7164960 Eh     change       -0.1126634E-04 Eh
 * total energy  :    -8.7164963 Eh     change       -0.2598098E-06 Eh
   *** GEOMETRY OPTIMIZATION CONVERGED AFTER 10 ITERATIONS ***

 final structure:
================
5
 xtb: 6.2.2 (9d81278992624c895f80dd42a50cac0aa55982e2)
C         0.59102207536114   -0.00823022323454   -0.13554799691002
C        -0.47623117776237   -0.90626206383716   -0.28409707752522
C        -1.25536296404992    0.01669695924881    0.45316461683254
C        -0.44878551322500    0.92279104669010   -0.27546225869519
H         1.58935657967614   -0.02499671886721    0.24194271629789

          :  Hamiltonian                  GFN2-xTB          :
         :: gradient norm              0.000139349783 Eh/a0 ::
         :: HOMO-LUMO gap              2.286726027689 eV    ::
         :: SCC energy                -8.857962855559 Eh    ::
         :: -> dispersion             -0.002017042276 Eh    ::
         :: repulsion energy           0.141466584747 Eh    ::

    * Orbital Energies and Occupations

         #    Occupation            Energy/Eh            Energy/eV
      -------------------------------------------------------------
         1        2.0000           -0.7180829             -19.5400
         2        2.0000           -0.6232557             -16.9596
         3        2.0000           -0.6034959             -16.4220
         4        2.0000           -0.5628403             -15.3157
         5        2.0000           -0.5099609             -13.8767
         6        2.0000           -0.5073314             -13.8052
         7        2.0000           -0.4462599             -12.1434
         8        2.0000           -0.4204193             -11.4402
         9        1.0000           -0.3905461             -10.6273 (HOMO)
        10                         -0.3065103              -8.3406 (LUMO)
        11                         -0.2688124              -7.3148
        12                         -0.2459366              -6.6923
        13                          0.1029741               2.8021
        14                          0.1186966               3.2299
        15                          0.1798750               4.8946
        16                          0.2700522               7.3485
        17                          0.6430864              17.4993
      -------------------------------------------------------------
                  HL-Gap            0.0840358 Eh            2.2867 eV

     #   Z        covCN         q      C6AA      Î±(0)
     1   6 C      3.504     0.060    21.060     6.802
     2   6 C      2.762    -0.039    28.950     8.811
     3   6 C      2.576    -0.061    29.549     8.887
     4   6 C      2.762    -0.039    28.950     8.811
     5   1 H      0.927     0.079     1.990     2.206

Wiberg/Mayer (AO) data.
largest (>0.10) Wiberg bond orders for each atom
          total WBO             WBO to atom ...

molecular dipole:
                 x           y           z       tot (Debye)
 q only:        0.518      -0.008       0.009
   full:        0.957      -0.014      -0.110       2.448

 projected vibrational frequencies (cm-1)
eigval :       -0.00    -0.00     0.00     0.00     0.00     0.00
eigval :      522.82   625.55   744.53   750.06   914.66  1055.57
eigval :     1273.41  1462.47  3184.31

   temp. (K)  partition function   enthalpy   heat capacity  entropy
                                   cal/mol     cal/K/mol   cal/K/mol   J/K/mol
  10.00  VIB   1.00                    0.000      0.000     -0.000
         ROT   82.8                   29.809      2.981     11.757
         INT   82.8                   29.809      2.981     11.756
         TR   0.204E+25               49.681      4.968     20.719
         TOT                          79.4904     7.9490    32.4751   135.8759

       T/K    H(0)-H(T)+PV         H(T)/Eh          T*S/Eh         G(T)/Eh
   ------------------------------------------------------------------------
    298.15    0.442012E-02    0.284169E-01    0.290904E-01   -0.673498E-03
    120.00    0.152718E-02    0.255240E-01    0.999466E-02    0.155293E-01
    100.00    0.126856E-02    0.252654E-01    0.809326E-02    0.171721E-01
     80.00    0.101365E-02    0.250105E-01    0.624719E-02    0.187633E-01
     60.00    0.760066E-03    0.247569E-01    0.446661E-02    0.202903E-01
     40.00    0.506704E-03    0.245035E-01    0.277234E-02    0.217312E-01
     20.00    0.253352E-03    0.242502E-01    0.121061E-02    0.230396E-01
     10.00    0.126676E-03    0.241235E-01    0.517524E-03    0.236060E-01 (used)
   ------------------------------------------------------------------------

         :::::::::::::::::::::::::::::::::::::::::::::::::::::
         ::                  THERMODYNAMIC                  ::
         :::::::::::::::::::::::::::::::::::::::::::::::::::::
         :: total free energy          -8.692890284332 Eh   ::
         ::.................................................::
         :: total energy               -8.716496246707 Eh   ::
         :: zero point energy           0.023996810230 Eh   ::
         :: G(RRHO) w/o ZPVE           -0.000390847855 Eh   ::
         :: G(RRHO) contrib.            0.023605962375 Eh   ::
         :::::::::::::::::::::::::::::::::::::::::::::::::::::

           -------------------------------------------------
          | TOTAL ENERGY               -8.716496246707 Eh   |
          | TOTAL ENTHALPY             -8.692372760462 Eh   |
          | TOTAL FREE ENERGY          -8.692890284332 Eh   |
          | GRADIENT NORM               0.000139146704 Eh/Î± |
          | HOMO-LUMO GAP               2.286729961983 eV   |
           -------------------------------------------------

 * finished run on 2020/05/12 at 11:45:10.893
