   * xtb version 6.2.2 (9d81278992624c895f80dd42a50cac0aa55982e2) compiled by '@Darwin' on 04/03/2020
          program call               : xtb --input C4N1_44_S_1.input C4N1_44_S_1.xyz --ohess --molden --namespace C4N1_44_S_1 output.out
          number of atoms            :                     5
          number of electrons        :                    21
          charge                     :                     0
          spin                       :                   0.5

   ID    Z sym.   atoms
    1    6 C      1-3, 5
    2    7 N      4

          :  Hamiltonian                  GFN2-xTB          :
 * total energy  :   -10.9539075 Eh     change        0.1346475E-08 Eh
 * total energy  :   -10.9945775 Eh     change       -0.4067008E-01 Eh
 * total energy  :   -11.0027748 Eh     change       -0.8197244E-02 Eh
 * total energy  :   -11.0106174 Eh     change       -0.7842582E-02 Eh
 * total energy  :   -11.0136485 Eh     change       -0.3031097E-02 Eh
 * total energy  :   -11.0186051 Eh     change       -0.4956651E-02 Eh
 * total energy  :   -11.0209062 Eh     change       -0.2301053E-02 Eh
 * total energy  :   -11.0262930 Eh     change       -0.5386848E-02 Eh
 * total energy  :   -11.0273486 Eh     change       -0.1055569E-02 Eh
 * total energy  :   -11.0359292 Eh     change       -0.8580644E-02 Eh
 * total energy  :   -11.0486546 Eh     change       -0.1003339E-02 Eh
 * total energy  :   -11.0491130 Eh     change       -0.4583928E-03 Eh
 * total energy  :   -11.0491600 Eh     change       -0.4707571E-04 Eh
 * total energy  :   -11.0491820 Eh     change       -0.2193699E-04 Eh
 * total energy  :   -11.0492124 Eh     change       -0.3043142E-04 Eh
 * total energy  :   -11.0492422 Eh     change       -0.2980913E-04 Eh
 * total energy  :   -11.0492660 Eh     change       -0.2375408E-04 Eh
 * total energy  :   -11.0492726 Eh     change       -0.6581030E-05 Eh
 * total energy  :   -11.0492744 Eh     change       -0.1805117E-05 Eh
   *** GEOMETRY OPTIMIZATION CONVERGED AFTER 23 ITERATIONS ***

 final structure:
================
5
 xtb: 6.2.2 (9d81278992624c895f80dd42a50cac0aa55982e2)
C         1.78941011445846   -0.34823768052944   -0.39472926581859
C         0.59423468469018   -0.15475879115884    0.02315926345788
C        -0.73864727684718   -0.62313588733397   -0.38865696739656
N        -0.36594784728523    0.48071338129685    0.85163355090528
C        -1.27905067501622    0.64541997772540   -0.09140658114801

          :  Hamiltonian                  GFN2-xTB          :
         :: gradient norm              0.000728107094 Eh/a0 ::
         :: HOMO-LUMO gap              1.100609016313 eV    ::
         :: SCC energy               -11.211088998568 Eh    ::
         :: -> dispersion             -0.002874626418 Eh    ::
         :: repulsion energy           0.161814611303 Eh    ::

    * Orbital Energies and Occupations

         #    Occupation            Energy/Eh            Energy/eV
      -------------------------------------------------------------
         1        2.0000           -0.7723661             -21.0172
         2        2.0000           -0.6988813             -19.0175
         3        2.0000           -0.6492140             -17.6660
         4        2.0000           -0.6448465             -17.5472
         5        2.0000           -0.5948152             -16.1857
         6        2.0000           -0.5644559             -15.3596
         7        2.0000           -0.5078688             -13.8198
         8        2.0000           -0.4930059             -13.4154
         9        2.0000           -0.4714314             -12.8283
        10        2.0000           -0.4556192             -12.3980
        11        1.0000           -0.4277687             -11.6402 (HOMO)
        12                         -0.3873223             -10.5396 (LUMO)
        13                         -0.3224290              -8.7737
        14                         -0.2933967              -7.9837
        15                         -0.2270145              -6.1774
        16                          0.0065945               0.1794
        17                          0.0798384               2.1725
        18                          0.1395249               3.7967
        19                          0.3771900              10.2639
        20                          0.7806425              21.2424
      -------------------------------------------------------------
                  HL-Gap            0.0404463 Eh            1.1006 eV

     #   Z        covCN         q      C6AA      Î±(0)
     1   6 C      0.983    -0.111    39.465    10.553
     2   6 C      3.275     0.164    23.247     7.766
     3   6 C      2.788    -0.019    28.460     8.739
     4   7 N      2.647    -0.067    22.552     7.053
     5   6 C      2.298     0.032    28.866     8.721

Wiberg/Mayer (AO) data.
largest (>0.10) Wiberg bond orders for each atom
          total WBO             WBO to atom ...

molecular dipole:
                 x           y           z       tot (Debye)
 q only:       -0.194       0.025      -0.010
   full:       -0.322       0.270       0.223       1.209

 projected vibrational frequencies (cm-1)
eigval :       -0.00    -0.00    -0.00     0.00     0.00     0.00
eigval :      219.87   257.43   432.36   498.09   783.51   971.97
eigval :     1030.25  1424.47  1707.14

   temp. (K)  partition function   enthalpy   heat capacity  entropy
                                   cal/mol     cal/K/mol   cal/K/mol   J/K/mol
  10.00  VIB   1.00                    0.000      0.000     -0.006
         ROT   197.                   29.809      2.981     13.478
         INT   197.                   29.809      2.981     13.472
         TR   0.290E+25               49.681      4.968     21.419
         TOT                          79.4904     7.9490    34.8917   145.9868

       T/K    H(0)-H(T)+PV         H(T)/Eh          T*S/Eh         G(T)/Eh
   ------------------------------------------------------------------------
    298.15    0.545385E-02    0.221416E-01    0.320527E-01   -0.991107E-02
    120.00    0.167080E-02    0.183586E-01    0.106501E-01    0.770845E-02
    100.00    0.134633E-02    0.180341E-01    0.857970E-02    0.945440E-02
     80.00    0.104567E-02    0.177334E-01    0.659582E-02    0.111376E-01
     60.00    0.767750E-03    0.174555E-01    0.470743E-02    0.127481E-01
     40.00    0.507184E-03    0.171950E-01    0.292729E-02    0.142677E-01
     20.00    0.253352E-03    0.169411E-01    0.128772E-02    0.156534E-01
     10.00    0.126676E-03    0.168144E-01    0.556034E-03    0.162584E-01 (used)
   ------------------------------------------------------------------------

         :::::::::::::::::::::::::::::::::::::::::::::::::::::
         ::                  THERMODYNAMIC                  ::
         :::::::::::::::::::::::::::::::::::::::::::::::::::::
         :: total free energy         -11.033015942466 Eh   ::
         ::.................................................::
         :: total energy              -11.049274354306 Eh   ::
         :: zero point energy           0.016687770154 Eh   ::
         :: G(RRHO) w/o ZPVE           -0.000429358314 Eh   ::
         :: G(RRHO) contrib.            0.016258411840 Eh   ::
         :::::::::::::::::::::::::::::::::::::::::::::::::::::

           -------------------------------------------------
          | TOTAL ENERGY              -11.049274354306 Eh   |
          | TOTAL ENTHALPY            -11.032459908136 Eh   |
          | TOTAL FREE ENERGY         -11.033015942466 Eh   |
          | GRADIENT NORM               0.000728327874 Eh/Î± |
          | HOMO-LUMO GAP               1.100600396298 eV   |
           -------------------------------------------------

 * finished run on 2020/05/12 at 11:44:18.273
