 Gaussian 16, Revision B.01,
 Gaussian 16:  ES64L-G16RevB.01 20-Dec-2017

 ------------------------
 #P ROCCSD(T)/aug-cc-pvtz
 ------------------------

 -----
 Title
 -----
 Symbolic Z-matrix:
 Charge =  0 Multiplicity = 4

                         Standard orientation:
 ---------------------------------------------------------------------
 Center     Atomic      Atomic             Coordinates (Angstroms)
 Number     Number       Type             X           Y           Z
 ---------------------------------------------------------------------
      1         15           0        0.000000    0.000000    0.000000
 ---------------------------------------------------------------------

 SCF Done:  E(ROHF) =  -340.716123525     A.U. after   10 cycles
 E2 =    -0.8455068005D-01 EUMP2 =    -0.34080067420551D+03
 CCSD(T)
 CCSD(T)= -0.34082214359D+03

 The electronic state is 4-A1G.
 Alpha  occ. eigenvalues --  -79.98031  -7.52242  -5.42034  -5.42034  -5.42034
 Alpha  occ. eigenvalues --   -0.83552  -0.39185  -0.39185  -0.39185
 Alpha virt. eigenvalues --    0.08116   0.08526   0.08526   0.08526   0.19484
 Alpha virt. eigenvalues --    0.19484   0.19484   0.19484   0.19484   0.49010
 Alpha virt. eigenvalues --    0.49010   0.49010   0.55601   0.55601   0.55601

 Mulliken charges and spin densities:
               1          2
     1  P   -0.000000   3.000000
 Sum of Mulliken charges =  -0.00000   3.00000

 Dipole moment (field-independent basis, Debye):
    X=              0.0000    Y=              0.0000    Z=              0.0000  Tot=              0.0000
 Quadrupole moment (field-independent basis, Debye-Ang):
   XX=            -13.5980   YY=            -13.5980   ZZ=            -13.5980
   XY=              0.0000   XZ=              0.0000   YZ=             -0.0000

 Normal termination of Gaussian 16 at Mon Oct  5 21:27:29 2020.
