 Gaussian 16, Revision B.01,

 ----------------------------------------------------------------
 #P M062X/cc-pvtz nosymm opt(noeigentest) optcyc=120 freq scf=xqc
 ----------------------------------------------------------------

 -----
 Title
 -----
 Symbolic Z-matrix:
 Charge =  0 Multiplicity = 2

 SCF Done:  E(UM062X) =  -154.036231075     A.U. after   19 cycles
 SCF Done:  E(UM062X) =  -154.045211460     A.U. after   18 cycles
 SCF Done:  E(UM062X) =  -154.048405561     A.U. after   19 cycles
 SCF Done:  E(UM062X) =  -154.044838281     A.U. after   20 cycles
 SCF Done:  E(UM062X) =  -154.050782718     A.U. after   17 cycles
 SCF Done:  E(UM062X) =  -154.050965588     A.U. after   17 cycles
 SCF Done:  E(UM062X) =  -154.051289709     A.U. after   18 cycles
 SCF Done:  E(UM062X) =  -154.051324966     A.U. after   14 cycles
 SCF Done:  E(UM062X) =  -154.051367478     A.U. after   16 cycles
 SCF Done:  E(UM062X) =  -154.051384910     A.U. after   16 cycles
 SCF Done:  E(UM062X) =  -154.051388794     A.U. after   13 cycles
 SCF Done:  E(UM062X) =  -154.051389343     A.U. after   12 cycles
 Optimization completed.
    -- Stationary point found.

 1\1\GINC-N1054\FOpt\UM062X\CC-pVTZ\C4H3(2)\SPANTALEONE\12-Oct-2020\0\\
 #P M062X/cc-pvtz nosymm opt(noeigentest) optcyc=120 freq scf=xqc\\Titl
 e\\0,2\C,0.0484026177,0.0000000305,-0.1398619072\C,0.3130303947,0.0000
 000054,2.4713920706\C,0.4367054595,-0.0000000061,3.6876705806\H,0.9118
 316789,-0.0000000123,-0.8000318158\H,-0.9290978321,-0.0000000258,-0.61
 49200285\H,0.5444472665,-0.0000000097,4.7444113938\C,0.178571145,0.000
 000018,1.1530971054\\Version=ES64L-G16RevB.01\HF=-154.0513893\S2=0.788
 439\S2-1=0.\S2A=0.751036\RMSD=6.444e-09\RMSF=3.176e-05\Dipole=-0.00381

 Normal termination of Gaussian 16 at Mon Oct 12 17:28:28 2020.

 -------------------------------------------------------------------
 #P Geom=AllCheck Guess=TCheck SCRF=Check GenChk UM062X/CC-pVTZ Freq
 -------------------------------------------------------------------

 Structure from the checkpoint file:  "input.chk"
 -----
 Title
 -----
 Charge =  0 Multiplicity = 2

 SCF Done:  E(UM062X) =  -154.051389343     A.U. after    1 cycles

  Exact polarizability:  28.347  -0.000  24.651   6.893  -0.000  95.309
 Approx polarizability:  33.554  -0.000  29.759   9.358  -0.000 124.812

                      1                      2                      3
                      A                      A                      A
 Frequencies --     62.4563               228.5627               368.8287
 Red. masses --      3.2263                 3.8426                10.3799
 Frc consts  --      0.0074                 0.1183                 0.8319
 IR Inten    --      5.8545                 7.2258                 0.1498

                      4                      5                      6
                      A                      A                      A
 Frequencies --    429.1525               549.8740               693.0012
 Red. masses --      1.1527                 7.4176                 1.2678
 Frc consts  --      0.1251                 1.3214                 0.3587
 IR Inten    --     55.7211                 0.0239                40.8080

                      7                      8                      9
                      A                      A                      A
 Frequencies --    894.3471               918.2210               970.8493
 Red. masses --      4.9049                 1.3293                 1.3400
 Frc consts  --      2.3115                 0.6603                 0.7441
 IR Inten    --      0.3015                49.8296                 0.0001

                     10                     11                     12
                      A                      A                      A
 Frequencies --   1435.0865              1834.4508              2009.0397
 Red. masses --      1.1254                 7.8865                 8.1167
 Frc consts  --      1.3656                15.6367                19.3021
 IR Inten    --      0.6434                12.4792                 5.4457

                     13                     14                     15
                      A                      A                      A
 Frequencies --   3101.1796              3169.5973              3474.2852
 Red. masses --      1.0537                 1.1139                 1.1346
 Frc consts  --      5.9706                 6.5936                 8.0693
 IR Inten    --      1.9663                 0.9048                91.6432

 - Thermochemistry -
 -------------------
 Temperature   298.150 Kelvin.  Pressure   1.00000 Atm.
 Atom     1 has atomic number  6 and mass  12.00000

 Molecular mass:    51.02348 amu.
 Principal axes and moments of inertia in atomic units:
                           1         2         3
     Eigenvalues --     6.16025 431.65415 437.81440
           X            0.10098   0.99489  -0.00000
           Y           -0.00000   0.00000   1.00000
           Z            0.99489  -0.10098   0.00000
 This molecule is an asymmetric top.
 Rotational symmetry number  1.
 Rotational temperatures (Kelvin)     14.06013     0.20066     0.19783
 Rotational constants (GHZ):         292.96551     4.18099     4.12216
 Zero-point vibrational energy     120457.6 (Joules/Mol)
                                   28.79005 (Kcal/Mol)
 Warning -- explicit consideration of   5 degrees of freedom as
           vibrations may cause significant error
 Vibrational temperatures:     89.86   328.85   530.66   617.45   791.15
          (Kelvin)            997.07  1286.77  1321.12  1396.84  2064.77
                             2639.37  2890.56  4461.91  4560.34  4998.72

 Zero-point correction=                           0.045880 (Hartree/Particle)
 Thermal correction to Energy=                    0.051122
 Thermal correction to Enthalpy=                  0.052066
 Thermal correction to Gibbs Free Energy=         0.018692
 Sum of electronic and zero-point Energies=           -154.005509
 Sum of electronic and thermal Energies=              -154.000267
 Sum of electronic and thermal Enthalpies=            -153.999323
 Sum of electronic and thermal Free Energies=         -154.032697

                     E (Thermal)             CV                S
                      KCal/Mol        Cal/Mol-Kelvin    Cal/Mol-Kelvin
 Total                   32.080             16.179             70.241
 Electronic               0.000              0.000              1.377
 Translational            0.889              2.981             37.712
 Rotational               0.889              2.981             21.681
 Vibrational             30.302             10.217              9.471
 Vibration     1          0.597              1.972              4.378
 Vibration     2          0.651              1.797              1.890
 Vibration     3          0.741              1.536              1.085
 Vibration     4          0.791              1.407              0.861
 Vibration     5          0.905              1.140              0.544

 Optimization completed.
    -- Stationary point found.

 1\1\GINC-N1054\Freq\UM062X\CC-pVTZ\C4H3(2)\SPANTALEONE\12-Oct-2020\0\\
 #P Geom=AllCheck Guess=TCheck SCRF=Check GenChk UM062X/CC-pVTZ Freq\\T
 itle\\0,2\C,0.0484026177,0.0000000305,-0.1398619072\C,0.3130303947,0.0
 000000054,2.4713920706\C,0.4367054595,-0.0000000061,3.6876705806\H,0.9
 118316789,-0.0000000123,-0.8000318158\H,-0.9290978321,-0.0000000258,-0
 .6149200285\H,0.5444472665,-0.0000000097,4.7444113938\C,0.178571145,0.
 000000018,1.1530971054\\Version=ES64L-G16RevB.01\HF=-154.0513893\S2=0.
 788439\S2-1=0.\S2A=0.751036\RMSD=1.338e-09\RMSF=3.176e-05\ZeroPoint=0.

 Normal termination of Gaussian 16 at Mon Oct 12 17:30:50 2020.
 Gaussian 16:  ES64L-G16RevB.01 20-Dec-2017

 -------------------------------------------------
 #P ROCCSD(T)/aug-cc-pvtz geom=allcheck guess=read
 -------------------------------------------------

 Structure from the checkpoint file:  "input.chk"
 -----
 Title
 -----
 Charge =  0 Multiplicity = 2

                         Standard orientation:
 ---------------------------------------------------------------------
 Center     Atomic      Atomic             Coordinates (Angstroms)
 Number     Number       Type             X           Y           Z
 ---------------------------------------------------------------------
      1          6           0        1.866528    0.000294   -0.000000
      2          6           0       -0.758100   -0.000086    0.000000
      3          6           0       -1.980650    0.000150    0.000000
      4          1           0        2.436145    0.925967    0.000000
      5          1           0        2.437856   -0.924245    0.000000
      6          1           0       -3.042869    0.000643    0.000000
      7          6           0        0.567034   -0.000752    0.000000
 ---------------------------------------------------------------------

 SCF Done:  E(ROHF) =  -153.110605377     A.U. after   19 cycles
 E2 =    -0.6159432779D+00 EUMP2 =    -0.15372654865465D+03
 CCSD(T)
 CCSD(T)= -0.15378058659D+03

 The electronic state is 2-A.
 Alpha  occ. eigenvalues --  -11.27865 -11.26146 -11.25829 -11.25633  -1.11200
 Alpha  occ. eigenvalues --   -1.02804  -0.88817  -0.72608  -0.67855  -0.64112
 Alpha  occ. eigenvalues --   -0.49118  -0.49097  -0.35618  -0.30473
 Alpha virt. eigenvalues --    0.02934   0.03190   0.04467   0.06466   0.07220
 Alpha virt. eigenvalues --    0.08406   0.09020   0.10419   0.10584   0.10990
 Alpha virt. eigenvalues --    0.12834   0.13437   0.14446   0.15487   0.16832

 Mulliken charges and spin densities:
               1          2
     1  C   -1.132561  -0.015285
     2  C    1.269933  -0.001659
     3  C   -1.699458   0.224791
     4  H    0.310323   0.023675
     5  H    0.310665   0.023614
     6  H    0.346144   0.006728
     7  C    0.594956   0.738135
 Sum of Mulliken charges =  -0.00000   1.00000

 Dipole moment (field-independent basis, Debye):
    X=              0.1782    Y=              0.0015    Z=              0.0000  Tot=              0.1782
 Quadrupole moment (field-independent basis, Debye-Ang):
   XX=            -15.3997   YY=            -24.4661   ZZ=            -26.4532
   XY=             -0.0015   XZ=              0.0000   YZ=             -0.0000

 53.7265487\MP4SDQ=-153.7442475\CCSD=-153.7450886\CCSD(T)=-153.7805866\
 Normal termination of Gaussian 16 at Mon Oct 12 18:11:35 2020.
