   * xtb version 6.2.2 (9d81278992624c895f80dd42a50cac0aa55982e2) compiled by '@Darwin' on 04/03/2020
          program call               : xtb --input H2C2O1_6_S_0.input H2C2O1_6_S_0.xyz --ohess --molden --namespace H2C2O1_6_S_0 output.out
          number of atoms            :                     5
          number of electrons        :                    16
          charge                     :                     0
          spin                       :                   0.0

   ID    Z sym.   atoms
    1    8 O      1
    2    6 C      2, 3
    3    1 H      4, 5

          :  Hamiltonian                  GFN2-xTB          :
 * total energy  :    -9.0780333 Eh     change       -0.1552426E-08 Eh
 * total energy  :    -9.0844490 Eh     change       -0.6415702E-02 Eh
 * total energy  :    -9.0856270 Eh     change       -0.1177969E-02 Eh
 * total energy  :    -9.0856942 Eh     change       -0.6722811E-04 Eh
 * total energy  :    -9.0857375 Eh     change       -0.4332923E-04 Eh
 * total energy  :    -9.0860541 Eh     change       -0.3165345E-03 Eh
 * total energy  :    -9.0998918 Eh     change       -0.1383776E-01 Eh
 * total energy  :    -9.1341952 Eh     change       -0.3430339E-01 Eh
 * total energy  :    -9.1573234 Eh     change       -0.2312820E-01 Eh
 * total energy  :    -9.1404956 Eh     change        0.1682778E-01 Eh
 * total energy  :    -9.1623126 Eh     change       -0.2181693E-01 Eh
 * total energy  :    -9.1621534 Eh     change        0.1591777E-03 Eh
 * total energy  :    -9.1663807 Eh     change       -0.4227309E-02 Eh
 * total energy  :    -9.1664526 Eh     change       -0.7191128E-04 Eh
 * total energy  :    -9.1651399 Eh     change        0.1312706E-02 Eh
 * total energy  :    -9.1664913 Eh     change       -0.1351350E-02 Eh
 * total energy  :    -9.1664896 Eh     change        0.1620488E-05 Eh
 * total energy  :    -9.1664927 Eh     change       -0.3085820E-05 Eh
   *** GEOMETRY OPTIMIZATION CONVERGED AFTER 18 ITERATIONS ***

 final structure:
================
5
 xtb: 6.2.2 (9d81278992624c895f80dd42a50cac0aa55982e2)
O        -0.02322077034073    0.00017819541932    0.32237424602688
C        -1.20438095968664   -0.24060944902976    0.41611044038480
C         1.09217796838040    0.24349301611789   -0.07516416210354
H        -1.79636589493900    0.29503366678070    1.15082855125953
H         1.93178965658597   -0.29809542928815    0.34561192443233

          :  Hamiltonian                  GFN2-xTB          :
         :: gradient norm              0.000666655512 Eh/a0 ::
         :: HOMO-LUMO gap              3.672779252998 eV    ::
         :: SCC energy                -9.274721472177 Eh    ::
         :: -> dispersion             -0.001423815633 Eh    ::
         :: repulsion energy           0.108228798594 Eh    ::

    * Orbital Energies and Occupations

         #    Occupation            Energy/Eh            Energy/eV
      -------------------------------------------------------------
         1        2.0000           -0.7841491             -21.3378
         2        2.0000           -0.7289945             -19.8370
         3        2.0000           -0.6252772             -17.0147
         4        2.0000           -0.6249804             -17.0066
         5        2.0000           -0.5368420             -14.6082
         6        2.0000           -0.5033678             -13.6973
         7        2.0000           -0.3684802             -10.0269
         8        2.0000           -0.3652274              -9.9383 (HOMO)
         9                         -0.2302553              -6.2656 (LUMO)
        10                         -0.2289357              -6.2297
        11                          0.1436051               3.9077
        12                          0.2320941               6.3156
        13                          0.2973126               8.0903
        14                          0.9592323              26.1020
      -------------------------------------------------------------
                  HL-Gap            0.1349722 Eh            3.6728 eV

     #   Z        covCN         q      C6AA      Î±(0)
     1   8 O      1.711     0.132    12.892     4.848
Refinement of some symmetry elements was terminated before convergence was reached.
Some symmetry elements may remain unidentified.
Molecule has the following symmetry elements: (C2)
It seems to be the C2 point group
     2   6 C      1.798    -0.120    34.576     9.503
     3   6 C      1.798    -0.120    34.574     9.503
     4   1 H      0.925     0.054     2.266     2.354
     5   1 H      0.925     0.054     2.265     2.354

Wiberg/Mayer (AO) data.
largest (>0.10) Wiberg bond orders for each atom
          total WBO             WBO to atom ...

molecular dipole:
                 x           y           z       tot (Debye)
 q only:        0.034      -0.001       0.157
   full:        0.139      -0.004       0.643       1.671

 projected vibrational frequencies (cm-1)
eigval :       -0.00    -0.00    -0.00     0.00     0.00     0.00
eigval :      449.84   454.08   848.52   971.63  1020.63  1243.12
eigval :     2003.03  2968.25  2986.22

   temp. (K)  partition function   enthalpy   heat capacity  entropy
                                   cal/mol     cal/K/mol   cal/K/mol   J/K/mol
  10.00  VIB   1.00                    0.000      0.000     -0.001
         ROT   12.2                   29.809      2.981      7.957
         INT   12.2                   29.809      2.981      7.956
         TR   0.162E+25               49.681      4.968     20.259
         TOT                          79.4904     7.9490    28.2157   118.0544

       T/K    H(0)-H(T)+PV         H(T)/Eh          T*S/Eh         G(T)/Eh
   ------------------------------------------------------------------------
    298.15    0.445648E-02    0.339481E-01    0.271649E-01    0.678316E-02
    120.00    0.153866E-02    0.310303E-01    0.919403E-02    0.218362E-01
    100.00    0.127297E-02    0.307646E-01    0.741967E-02    0.233449E-01
     80.00    0.101463E-02    0.305062E-01    0.570530E-02    0.248009E-01
     60.00    0.760137E-03    0.302517E-01    0.405944E-02    0.261923E-01
     40.00    0.506704E-03    0.299983E-01    0.250084E-02    0.274975E-01
     20.00    0.253352E-03    0.297450E-01    0.107485E-02    0.286701E-01
     10.00    0.126676E-03    0.296183E-01    0.449645E-03    0.291686E-01 (used)
   ------------------------------------------------------------------------

         :::::::::::::::::::::::::::::::::::::::::::::::::::::
         ::                  THERMODYNAMIC                  ::
         :::::::::::::::::::::::::::::::::::::::::::::::::::::
         :: total free energy          -9.137324091049 Eh   ::
         ::.................................................::
         :: total energy               -9.166492723782 Eh   ::
         :: zero point energy           0.029491602056 Eh   ::
         :: G(RRHO) w/o ZPVE           -0.000322969323 Eh   ::
         :: G(RRHO) contrib.            0.029168632733 Eh   ::
         :::::::::::::::::::::::::::::::::::::::::::::::::::::

           -------------------------------------------------
          | TOTAL ENERGY               -9.166492723782 Eh   |
          | TOTAL ENTHALPY             -9.136874445710 Eh   |
          | TOTAL FREE ENERGY          -9.137324091049 Eh   |
          | GRADIENT NORM               0.000669593965 Eh/Î± |
          | HOMO-LUMO GAP               3.672779272269 eV   |
           -------------------------------------------------

 * finished run on 2020/05/12 at 11:45:15.110
