   * xtb version 6.2.2 (9d81278992624c895f80dd42a50cac0aa55982e2) compiled by '@Darwin' on 04/03/2020
          program call               : xtb --input H1C3N1_32_S_0.input H1C3N1_32_S_0.xyz --ohess --molden --namespace H1C3N1_32_S_0 output.out
          number of atoms            :                     5
          number of electrons        :                    18
          charge                     :                     0
          spin                       :                   0.0

   ID    Z sym.   atoms
    1    6 C      1-3
    2    7 N      4
    3    1 H      5

          :  Hamiltonian                  GFN2-xTB          :
 * total energy  :    -9.4435135 Eh     change       -0.3283063E-09 Eh
 * total energy  :    -9.4673452 Eh     change       -0.2383176E-01 Eh
 * total energy  :    -9.5203532 Eh     change       -0.5300800E-01 Eh
 * total energy  :    -9.5382465 Eh     change       -0.1789328E-01 Eh
 * total energy  :    -9.5554241 Eh     change       -0.1717758E-01 Eh
 * total energy  :    -9.5797340 Eh     change       -0.2430989E-01 Eh
 * total energy  :    -9.5824627 Eh     change       -0.2728749E-02 Eh
 * total energy  :    -9.5842246 Eh     change       -0.1761872E-02 Eh
 * total energy  :    -9.5846087 Eh     change       -0.3840621E-03 Eh
 * total energy  :    -9.5847376 Eh     change       -0.1289709E-03 Eh
 * total energy  :    -9.5847806 Eh     change       -0.4297037E-04 Eh
 * total energy  :    -9.5848266 Eh     change       -0.4602620E-04 Eh
 * total energy  :    -9.5848476 Eh     change       -0.2093619E-04 Eh
 * total energy  :    -9.5848585 Eh     change       -0.1089927E-04 Eh
 * total energy  :    -9.5848614 Eh     change       -0.2882196E-05 Eh
   *** GEOMETRY OPTIMIZATION CONVERGED AFTER 15 ITERATIONS ***

 final structure:
================
5
 xtb: 6.2.2 (9d81278992624c895f80dd42a50cac0aa55982e2)
C         0.49072291675672    0.16171743812314    0.17378092173723
C        -0.64934590541162   -0.14740697911697    0.89077282731349
C        -0.98699844000784   -0.62509552906757   -0.42727767331912
N        -0.40757817819404    0.52698810842629   -0.79603317099086
H         1.55320060685678    0.08379696163510    0.15875709525926

          :  Hamiltonian                  GFN2-xTB          :
         :: gradient norm              0.000567689671 Eh/a0 ::
         :: HOMO-LUMO gap              3.168582937377 eV    ::
         :: SCC energy                -9.713007766018 Eh    ::
         :: -> dispersion             -0.001955684961 Eh    ::
         :: repulsion energy           0.128146384139 Eh    ::

    * Orbital Energies and Occupations

         #    Occupation            Energy/Eh            Energy/eV
      -------------------------------------------------------------
         1        2.0000           -0.7492098             -20.3870
         2        2.0000           -0.6416744             -17.4609
         3        2.0000           -0.6347810             -17.2733
         4        2.0000           -0.5915073             -16.0957
         5        2.0000           -0.5429724             -14.7750
         6        2.0000           -0.5240983             -14.2614
         7        2.0000           -0.4848471             -13.1934
         8        2.0000           -0.4385475             -11.9335
         9        2.0000           -0.4317458             -11.7484 (HOMO)
        10                         -0.3153025              -8.5798 (LUMO)
        11                         -0.2813005              -7.6546
        12                         -0.2767972              -7.5320
        13                          0.0582702               1.5856
        14                          0.0754854               2.0541
        15                          0.1250500               3.4028
        16                          0.2679448               7.2911
        17                          0.5977124              16.2646
      -------------------------------------------------------------
                  HL-Gap            0.1164433 Eh            3.1686 eV

     #   Z        covCN         q      C6AA      Î±(0)
     1   6 C      3.680     0.123    18.772     6.206
     2   6 C      2.627    -0.067    29.653     8.907
     3   6 C      2.752    -0.017    28.418     8.729
     4   7 N      2.487    -0.117    23.598     7.214
     5   1 H      0.927     0.078     2.003     2.213

Wiberg/Mayer (AO) data.
largest (>0.10) Wiberg bond orders for each atom
          total WBO             WBO to atom ...

molecular dipole:
                 x           y           z       tot (Debye)
 q only:        0.546      -0.027       0.141
   full:        1.117       0.044       0.069       2.847

 projected vibrational frequencies (cm-1)
eigval :       -0.00    -0.00    -0.00     0.00     0.00     0.00
eigval :      587.73   635.39   763.10   813.76   954.08  1182.80
eigval :     1335.49  1506.22  3211.82

   temp. (K)  partition function   enthalpy   heat capacity  entropy
                                   cal/mol     cal/K/mol   cal/K/mol   J/K/mol
  10.00  VIB   1.00                    0.000      0.000     -0.000
         ROT   81.2                   29.809      2.981     11.720
         INT   81.2                   29.809      2.981     11.719
         TR   0.217E+25               49.681      4.968     20.838
         TOT                          79.4904     7.9490    32.5570   136.2186

       T/K    H(0)-H(T)+PV         H(T)/Eh          T*S/Eh         G(T)/Eh
   ------------------------------------------------------------------------
    298.15    0.432585E-02    0.293638E-01    0.289964E-01    0.367378E-03
    120.00    0.152450E-02    0.265624E-01    0.100072E-01    0.165552E-01
    100.00    0.126773E-02    0.263057E-01    0.810536E-02    0.182003E-01
     80.00    0.101351E-02    0.260514E-01    0.625746E-02    0.197940E-01
     60.00    0.760059E-03    0.257980E-01    0.447442E-02    0.213236E-01
     40.00    0.506704E-03    0.255446E-01    0.277756E-02    0.227671E-01
     20.00    0.253352E-03    0.252913E-01    0.121322E-02    0.240781E-01
     10.00    0.126676E-03    0.251646E-01    0.518829E-03    0.246458E-01 (used)
   ------------------------------------------------------------------------

         :::::::::::::::::::::::::::::::::::::::::::::::::::::
         ::                  THERMODYNAMIC                  ::
         :::::::::::::::::::::::::::::::::::::::::::::::::::::
         :: total free energy          -9.560215592747 Eh   ::
         ::.................................................::
         :: total energy               -9.584861356501 Eh   ::
         :: zero point energy           0.025037916939 Eh   ::
         :: G(RRHO) w/o ZPVE           -0.000392153186 Eh   ::
         :: G(RRHO) contrib.            0.024645763754 Eh   ::
         :::::::::::::::::::::::::::::::::::::::::::::::::::::

           -------------------------------------------------
          | TOTAL ENERGY               -9.584861356501 Eh   |
          | TOTAL ENTHALPY             -9.559696763546 Eh   |
          | TOTAL FREE ENERGY          -9.560215592747 Eh   |
          | GRADIENT NORM               0.000567677834 Eh/Î± |
          | HOMO-LUMO GAP               3.168583935185 eV   |
           -------------------------------------------------

 * finished run on 2020/05/12 at 11:45:02.732
