   * xtb version 6.2.2 (9d81278992624c895f80dd42a50cac0aa55982e2) compiled by '@Darwin' on 04/03/2020
          program call               : xtb --input H1C3N1_23_S_2.input H1C3N1_23_S_2.xyz --ohess --molden --namespace H1C3N1_23_S_2 output.out
          number of atoms            :                     5
          number of electrons        :                    18
          charge                     :                     0
          spin                       :                   1.0

   ID    Z sym.   atoms
    1    6 C      1-3
    2    7 N      4
    3    1 H      5

          :  Hamiltonian                  GFN2-xTB          :
 * total energy  :    -9.4567911 Eh     change        0.6742873E-10 Eh
 * total energy  :    -9.4920433 Eh     change       -0.3525220E-01 Eh
 * total energy  :    -9.4960536 Eh     change       -0.4010362E-02 Eh
 * total energy  :    -9.5093177 Eh     change       -0.1326407E-01 Eh
 * total energy  :    -9.5107773 Eh     change       -0.1459613E-02 Eh
 * total energy  :    -9.5138217 Eh     change       -0.3044403E-02 Eh
 * total energy  :    -9.5150347 Eh     change       -0.1213027E-02 Eh
 * total energy  :    -9.5169225 Eh     change       -0.1887760E-02 Eh
 * total energy  :    -9.5176651 Eh     change       -0.7425908E-03 Eh
 * total energy  :    -9.5179778 Eh     change       -0.3127154E-03 Eh
 * total energy  :    -9.5180853 Eh     change       -0.1074823E-03 Eh
 * total energy  :    -9.5180898 Eh     change       -0.4565069E-05 Eh
   *** GEOMETRY OPTIMIZATION CONVERGED AFTER 12 ITERATIONS ***

 final structure:
================
5
 xtb: 6.2.2 (9d81278992624c895f80dd42a50cac0aa55982e2)
C         0.46978326398570    0.01264428924686   -0.10442155543236
C        -0.54962467466736    1.09907442611912   -0.25312694844293
C        -1.06650766195306   -0.06188215060340    0.29372796232016
N        -0.32904918508916   -1.10203168659159   -0.20292928391220
H         1.47539925772387    0.05219512182902    0.26674882546733

          :  Hamiltonian                  GFN2-xTB          :
         :: gradient norm              0.000935573018 Eh/a0 ::
         :: HOMO-LUMO gap              3.058669730981 eV    ::
         :: SCC energy                -9.638495717992 Eh    ::
         :: -> dispersion             -0.002015889208 Eh    ::
         :: repulsion energy           0.120405839234 Eh    ::

    * Orbital Energies and Occupations

         #    Occupation            Energy/Eh            Energy/eV
      -------------------------------------------------------------
         1        2.0000           -0.7421265             -20.1943
         2        2.0000           -0.6524256             -17.7534
         3        2.0000           -0.6329604             -17.2237
         4        2.0000           -0.5759749             -15.6731
         5        2.0000           -0.5393566             -14.6766
         6        2.0000           -0.5232171             -14.2375
         7        2.0000           -0.4897518             -13.3268
         8        2.0000           -0.4290326             -11.6746
         9        1.0000           -0.4073420             -11.0843
        10        1.0000           -0.3772068             -10.2643 (HOMO)
        11                         -0.2648027              -7.2056 (LUMO)
        12                         -0.2515891              -6.8461
        13                          0.0151070               0.4111
        14                          0.0902638               2.4562
        15                          0.2138258               5.8185
        16                          0.3058445               8.3225
        17                          0.3800836              10.3426
      -------------------------------------------------------------
                  HL-Gap            0.1124040 Eh            3.0587 eV

     #   Z        covCN         q      C6AA      Î±(0)
     1   6 C      3.780     0.146    18.249     6.086
     2   6 C      2.024    -0.142    35.020     9.558
     3   6 C      2.857     0.106    25.651     8.301
     4   7 N      1.886    -0.196    26.082     7.571
     5   1 H      0.926     0.086     1.917     2.165

Wiberg/Mayer (AO) data.
largest (>0.10) Wiberg bond orders for each atom
          total WBO             WBO to atom ...

molecular dipole:
                 x           y           z       tot (Debye)
 q only:        0.426       0.113       0.217
   full:        0.756      -0.049       0.542       2.367

 projected vibrational frequencies (cm-1)
eigval :       -0.00    -0.00    -0.00     0.00     0.00     0.00
eigval :      564.41   624.65   686.60   831.27   898.22   981.33
eigval :     1354.81  1437.13  3120.92

   temp. (K)  partition function   enthalpy   heat capacity  entropy
                                   cal/mol     cal/K/mol   cal/K/mol   J/K/mol
  10.00  VIB   1.00                    0.000      0.000     -0.000
         ROT   86.3                   29.809      2.981     11.839
         INT   86.3                   29.809      2.981     11.838
         TR   0.217E+25               49.681      4.968     20.838
         TOT                          79.4904     7.9490    32.6763   136.7177

       T/K    H(0)-H(T)+PV         H(T)/Eh          T*S/Eh         G(T)/Eh
   ------------------------------------------------------------------------
    298.15    0.440168E-02    0.283210E-01    0.291561E-01   -0.835147E-03
    120.00    0.152580E-02    0.254451E-01    0.100315E-01    0.154136E-01
    100.00    0.126808E-02    0.251874E-01    0.812477E-02    0.170626E-01
     80.00    0.101356E-02    0.249328E-01    0.627273E-02    0.186601E-01
     60.00    0.760061E-03    0.246793E-01    0.448584E-02    0.201935E-01
     40.00    0.506704E-03    0.244260E-01    0.278516E-02    0.216408E-01
     20.00    0.253352E-03    0.241726E-01    0.121702E-02    0.229556E-01
     10.00    0.126676E-03    0.240460E-01    0.520730E-03    0.235252E-01 (used)
   ------------------------------------------------------------------------

         :::::::::::::::::::::::::::::::::::::::::::::::::::::
         ::                  THERMODYNAMIC                  ::
         :::::::::::::::::::::::::::::::::::::::::::::::::::::
         :: total free energy          -9.494564624828 Eh   ::
         ::.................................................::
         :: total energy               -9.518089845215 Eh   ::
         :: zero point energy           0.023919274646 Eh   ::
         :: G(RRHO) w/o ZPVE           -0.000394054259 Eh   ::
         :: G(RRHO) contrib.            0.023525220386 Eh   ::
         :::::::::::::::::::::::::::::::::::::::::::::::::::::

           -------------------------------------------------
          | TOTAL ENERGY               -9.518089845215 Eh   |
          | TOTAL ENTHALPY             -9.494043894553 Eh   |
          | TOTAL FREE ENERGY          -9.494564624828 Eh   |
          | GRADIENT NORM               0.000935603086 Eh/Î± |
          | HOMO-LUMO GAP               3.058669655027 eV   |
           -------------------------------------------------

 * finished run on 2020/05/12 at 11:44:59.634
