   * xtb version 6.2.2 (9d81278992624c895f80dd42a50cac0aa55982e2) compiled by '@Darwin' on 04/03/2020
          program call               : xtb --input C4N1_31_S_3.input C4N1_31_S_3.xyz --ohess --molden --namespace C4N1_31_S_3 output.out
          number of atoms            :                     5
          number of electrons        :                    21
          charge                     :                     0
          spin                       :                   1.5

   ID    Z sym.   atoms
    1    6 C      1, 3-5
    2    7 N      2

          :  Hamiltonian                  GFN2-xTB          :
 * total energy  :   -10.9589489 Eh     change       -0.1644015E-08 Eh
 * total energy  :   -10.9769096 Eh     change       -0.1796070E-01 Eh
 * total energy  :   -10.9912819 Eh     change       -0.1437228E-01 Eh
 * total energy  :   -10.9983676 Eh     change       -0.7085621E-02 Eh
 * total energy  :   -11.0060317 Eh     change       -0.7664170E-02 Eh
 * total energy  :   -11.0089689 Eh     change       -0.2937135E-02 Eh
 * total energy  :   -11.0150672 Eh     change       -0.6098314E-02 Eh
 * total energy  :   -11.0216922 Eh     change       -0.6624994E-02 Eh
 * total energy  :   -11.0344175 Eh     change       -0.1272536E-01 Eh
 * total energy  :   -11.0363107 Eh     change       -0.1893171E-02 Eh
 * total energy  :   -11.0321743 Eh     change        0.4136372E-02 Eh
 * total energy  :   -11.0383219 Eh     change       -0.6147571E-02 Eh
 * total energy  :   -11.0385634 Eh     change       -0.2415111E-03 Eh
 * total energy  :   -11.0388630 Eh     change       -0.2995792E-03 Eh
 * total energy  :   -11.0388989 Eh     change       -0.3593870E-04 Eh
 * total energy  :   -11.0389205 Eh     change       -0.2153313E-04 Eh
 * total energy  :   -11.0389354 Eh     change       -0.1497995E-04 Eh
 * total energy  :   -11.0389413 Eh     change       -0.5905169E-05 Eh
 * total energy  :   -11.0389434 Eh     change       -0.2054908E-05 Eh
   *** GEOMETRY OPTIMIZATION CONVERGED AFTER 19 ITERATIONS ***

 final structure:
================
5
 xtb: 6.2.2 (9d81278992624c895f80dd42a50cac0aa55982e2)
C        -0.63006189615434    0.57515759925930   -0.01323416066502
N         0.51359109976915    1.20693796466702    0.02492206627111
C         0.13975681719604   -1.10171454813150   -0.00702393029228
C         1.11212268871565    0.02141738508517    0.02920103912905
C        -1.13540870952650   -0.70179840088000   -0.03386501444286

          :  Hamiltonian                  GFN2-xTB          :
         :: gradient norm              0.000792291408 Eh/a0 ::
         :: HOMO-LUMO gap              2.744553516859 eV    ::
         :: SCC energy               -11.205161954966 Eh    ::
         :: -> dispersion             -0.002740240984 Eh    ::
         :: repulsion energy           0.166218532793 Eh    ::

    * Orbital Energies and Occupations

         #    Occupation            Energy/Eh            Energy/eV
      -------------------------------------------------------------
         1        2.0000           -0.7452324             -20.2788
         2        2.0000           -0.6876602             -18.7122
         3        2.0000           -0.6438704             -17.5206
         4        2.0000           -0.5944505             -16.1758
         5        2.0000           -0.5799450             -15.7811
         6        2.0000           -0.5754880             -15.6598
         7        2.0000           -0.5042326             -13.7209
         8        2.0000           -0.4642357             -12.6325
         9        2.0000           -0.4502217             -12.2512
        10        1.0000           -0.4156314             -11.3099
        11        1.0000           -0.4148943             -11.2898
        12        1.0000           -0.3953611             -10.7583 (HOMO)
        13                         -0.2945005              -8.0138 (LUMO)
        14                         -0.2505335              -6.8174
        15                         -0.2157218              -5.8701
        16                          0.1149932               3.1291
        17                          0.1462888               3.9807
        18                          0.2816232               7.6634
        19                          0.4067980              11.0695
        20                          0.6200829              16.8733
      -------------------------------------------------------------
                  HL-Gap            0.1008607 Eh            2.7446 eV

     #   Z        covCN         q      C6AA      Î±(0)
     1   6 C      3.472     0.149    20.009     6.705
     2   7 N      1.836    -0.146    24.936     7.400
     3   6 C      2.752     0.004    27.925     8.653
     4   6 C      2.718     0.043    27.007     8.507
     5   6 C      1.989    -0.051    32.411     9.194

Wiberg/Mayer (AO) data.
largest (>0.10) Wiberg bond orders for each atom
          total WBO             WBO to atom ...

molecular dipole:
                 x           y           z       tot (Debye)
 q only:       -0.119      -0.108      -0.005
   full:       -0.305      -0.161      -0.011       0.877

 projected vibrational frequencies (cm-1)
eigval :       -0.00    -0.00     0.00     0.00     0.00     0.00
eigval :      299.50   360.71   546.14   566.62   922.28   947.07
eigval :     1096.93  1440.75  1617.32

   temp. (K)  partition function   enthalpy   heat capacity  entropy
                                   cal/mol     cal/K/mol   cal/K/mol   J/K/mol
  10.00  VIB   1.00                    0.000      0.000     -0.002
         ROT   172.                   29.809      2.981     13.207
         INT   172.                   29.809      2.981     13.205
         TR   0.290E+25               49.681      4.968     21.419
         TOT                          79.4904     7.9490    34.6241   144.8674

       T/K    H(0)-H(T)+PV         H(T)/Eh          T*S/Eh         G(T)/Eh
   ------------------------------------------------------------------------
    298.15    0.504801E-02    0.228116E-01    0.311385E-01   -0.832693E-02
    120.00    0.158745E-02    0.193510E-01    0.104820E-01    0.886902E-02
    100.00    0.129629E-02    0.190599E-01    0.846989E-02    0.105900E-01
     80.00    0.102242E-02    0.187860E-01    0.653177E-02    0.122542E-01
     60.00    0.761391E-03    0.185250E-01    0.467378E-02    0.138512E-01
     40.00    0.506736E-03    0.182703E-01    0.290946E-02    0.153609E-01
     20.00    0.253352E-03    0.180169E-01    0.127913E-02    0.167378E-01
     10.00    0.126676E-03    0.178903E-01    0.551771E-03    0.173385E-01 (used)
   ------------------------------------------------------------------------

         :::::::::::::::::::::::::::::::::::::::::::::::::::::
         ::                  THERMODYNAMIC                  ::
         :::::::::::::::::::::::::::::::::::::::::::::::::::::
         :: total free energy         -11.021604907527 Eh   ::
         ::.................................................::
         :: total energy              -11.038943393025 Eh   ::
         :: zero point energy           0.017763580272 Eh   ::
         :: G(RRHO) w/o ZPVE           -0.000425094773 Eh   ::
         :: G(RRHO) contrib.            0.017338485498 Eh   ::
         :::::::::::::::::::::::::::::::::::::::::::::::::::::

           -------------------------------------------------
          | TOTAL ENERGY              -11.038943393025 Eh   |
          | TOTAL ENTHALPY            -11.021053136738 Eh   |
          | TOTAL FREE ENERGY         -11.021604907527 Eh   |
          | GRADIENT NORM               0.000792522874 Eh/Î± |
          | HOMO-LUMO GAP               2.744558789246 eV   |
           -------------------------------------------------

 * finished run on 2020/05/12 at 11:44:12.238
