   * xtb version 6.2.2 (9d81278992624c895f80dd42a50cac0aa55982e2) compiled by '@Darwin' on 04/03/2020
          program call               : xtb --input C4N1_45_S_3.input C4N1_45_S_3.xyz --ohess --molden --namespace C4N1_45_S_3 output.out
          number of atoms            :                     5
          number of electrons        :                    21
          charge                     :                     0
          spin                       :                   1.5

   ID    Z sym.   atoms
    1    7 N      1
    2    6 C      2-5

          :  Hamiltonian                  GFN2-xTB          :
 * total energy  :   -10.8649895 Eh     change       -0.9411263E-09 Eh
 * total energy  :   -10.9082864 Eh     change       -0.4329688E-01 Eh
 * total energy  :   -10.9401132 Eh     change       -0.3182687E-01 Eh
 * total energy  :   -10.9569430 Eh     change       -0.1682978E-01 Eh
 * total energy  :   -10.9574958 Eh     change       -0.5528121E-03 Eh
 * total energy  :   -10.9581815 Eh     change       -0.6857022E-03 Eh
 * total energy  :   -10.9582236 Eh     change       -0.4202803E-04 Eh
 * total energy  :   -10.9582294 Eh     change       -0.5857054E-05 Eh
 * total energy  :   -10.9582311 Eh     change       -0.1663959E-05 Eh
   *** GEOMETRY OPTIMIZATION CONVERGED AFTER 9 ITERATIONS ***

 final structure:
================
5
 xtb: 6.2.2 (9d81278992624c895f80dd42a50cac0aa55982e2)
N        -0.93579520168091   -0.82547412175169    0.00549418169672
C        -0.10859184666503   -0.10331052895260    0.85418444150809
C        -0.12168861567063   -0.09982180606326   -0.85283396269974
C         0.05355671188733    1.11458314276926    0.00179850263846
C         1.11251795212924   -0.08597668600170   -0.00864216314352

          :  Hamiltonian                  GFN2-xTB          :
         :: gradient norm              0.000687872375 Eh/a0 ::
         :: HOMO-LUMO gap              0.905918077814 eV    ::
         :: SCC energy               -11.074209054430 Eh    ::
         :: -> dispersion             -0.002493299182 Eh    ::
         :: repulsion energy           0.115977941549 Eh    ::

    * Orbital Energies and Occupations

         #    Occupation            Energy/Eh            Energy/eV
      -------------------------------------------------------------
         1        2.0000           -0.7725237             -21.0214
         2        2.0000           -0.6835019             -18.5990
         3        2.0000           -0.6371648             -17.3381
         4        2.0000           -0.6326602             -17.2156
         5        2.0000           -0.5718125             -15.5598
         6        2.0000           -0.5363923             -14.5960
         7        2.0000           -0.4950529             -13.4711
         8        2.0000           -0.4848848             -13.1944
         9        1.9999           -0.4783783             -13.0173
        10        1.0001           -0.4597709             -12.5110
        11        1.0000           -0.4402112             -11.9788
        12        1.0000           -0.3813175             -10.3762 (HOMO)
        13                         -0.3480257              -9.4703 (LUMO)
        14                         -0.1632113              -4.4412
        15                         -0.1161590              -3.1608
        16                          0.0659617               1.7949
        17                          0.0915851               2.4922
        18                          0.1042990               2.8381
        19                          0.1304452               3.5496
        20                          0.3302995               8.9879
      -------------------------------------------------------------
                  HL-Gap            0.0332919 Eh            0.9059 eV

     #   Z        covCN         q      C6AA      Î±(0)
     1   7 N      2.008    -0.138    24.718     7.374
     2   6 C      3.786     0.085    19.192     6.240
     3   6 C      3.786     0.085    19.192     6.240
     4   6 C      3.013    -0.016    28.379     8.739
     5   6 C      3.013    -0.016    28.379     8.739

Wiberg/Mayer (AO) data.
largest (>0.10) Wiberg bond orders for each atom
          total WBO             WBO to atom ...

molecular dipole:
                 x           y           z       tot (Debye)
 q only:        0.173       0.153      -0.001
   full:        0.007       0.006      -0.000       0.023

 projected vibrational frequencies (cm-1)
eigval :       -0.00    -0.00    -0.00     0.00     0.00     0.00
eigval :     -759.58   581.53   669.92   811.26   824.35   983.86
eigval :      984.52  1275.90  1378.72

   temp. (K)  partition function   enthalpy   heat capacity  entropy
                                   cal/mol     cal/K/mol   cal/K/mol   J/K/mol
  10.00  VIB   1.00                    0.000      0.000     -0.000
         ROT   71.6                   29.809      2.981     11.469
         INT   71.6                   29.809      2.981     11.469
         TR   0.290E+25               49.681      4.968     21.419
         TOT                          79.4904     7.9490    32.8885   137.6053

       T/K    H(0)-H(T)+PV         H(T)/Eh          T*S/Eh         G(T)/Eh
   ------------------------------------------------------------------------
    298.15    0.431828E-02    0.214274E-01    0.291399E-01   -0.771243E-02
    120.00    0.152407E-02    0.186332E-01    0.100701E-01    0.856317E-02
    100.00    0.126764E-02    0.183768E-01    0.815807E-02    0.102187E-01
     80.00    0.101351E-02    0.181227E-01    0.629971E-02    0.118230E-01
     60.00    0.760059E-03    0.178692E-01    0.450611E-02    0.133631E-01
     40.00    0.506704E-03    0.176159E-01    0.279868E-02    0.148172E-01
     20.00    0.253352E-03    0.173625E-01    0.122378E-02    0.161387E-01
     10.00    0.126676E-03    0.172358E-01    0.524111E-03    0.167117E-01 (used)
   ------------------------------------------------------------------------

         :::::::::::::::::::::::::::::::::::::::::::::::::::::
         ::                  THERMODYNAMIC                  ::
         :::::::::::::::::::::::::::::::::::::::::::::::::::::
         :: total free energy         -10.941519361993 Eh   ::
         ::.................................................::
         :: total energy              -10.958231091888 Eh   ::
         :: zero point energy           0.017109164928 Eh   ::
         :: G(RRHO) w/o ZPVE           -0.000397435033 Eh   ::
         :: G(RRHO) contrib.            0.016711729895 Eh   ::
         :::::::::::::::::::::::::::::::::::::::::::::::::::::

           -------------------------------------------------
          | TOTAL ENERGY              -10.958231091888 Eh   |
          | TOTAL ENTHALPY            -10.940995250944 Eh   |
          | TOTAL FREE ENERGY         -10.941519361993 Eh   |
          | GRADIENT NORM               0.000688063050 Eh/Î± |
          | HOMO-LUMO GAP               0.905917849040 eV   |
           -------------------------------------------------

 * finished run on 2020/05/12 at 11:44:18.948
