   * xtb version 6.2.2 (9d81278992624c895f80dd42a50cac0aa55982e2) compiled by '@Darwin' on 04/03/2020
          program call               : xtb --input H1C3N1_26_S_0.input H1C3N1_26_S_0.xyz --ohess --molden --namespace H1C3N1_26_S_0 output.out
          number of atoms            :                     5
          number of electrons        :                    18
          charge                     :                     0
          spin                       :                   0.0

   ID    Z sym.   atoms
    1    6 C      1-3
    2    7 N      4
    3    1 H      5

          :  Hamiltonian                  GFN2-xTB          :
 * total energy  :    -9.4818559 Eh     change        0.6956817E-09 Eh
 * total energy  :    -9.5080242 Eh     change       -0.2616827E-01 Eh
 * total energy  :    -9.5242980 Eh     change       -0.1627387E-01 Eh
 * total energy  :    -9.5533328 Eh     change       -0.2903475E-01 Eh
 * total energy  :    -9.5703756 Eh     change       -0.1704286E-01 Eh
 * total energy  :    -9.5812702 Eh     change       -0.1089462E-01 Eh
 * total energy  :    -9.5831644 Eh     change       -0.1894138E-02 Eh
 * total energy  :    -9.5840321 Eh     change       -0.8677194E-03 Eh
 * total energy  :    -9.5843960 Eh     change       -0.3638569E-03 Eh
 * total energy  :    -9.5845941 Eh     change       -0.1981322E-03 Eh
 * total energy  :    -9.5848068 Eh     change       -0.2127162E-03 Eh
 * total energy  :    -9.5848476 Eh     change       -0.4076847E-04 Eh
 * total energy  :    -9.5848598 Eh     change       -0.1218187E-04 Eh
 * total energy  :    -9.5848611 Eh     change       -0.1358416E-05 Eh
   *** GEOMETRY OPTIMIZATION CONVERGED AFTER 14 ITERATIONS ***

 final structure:
================
5
 xtb: 6.2.2 (9d81278992624c895f80dd42a50cac0aa55982e2)
C         0.54218134542746    0.04433481065655   -0.03208088413351
C        -0.44514506154628    0.97201975041563   -0.30582099045880
C        -1.18957723275077   -0.06829331041105    0.35873079109613
N        -0.42042873509231   -0.85833763951964   -0.40593493953870
H         1.51296968396189   -0.08972361114149    0.38510702303488

          :  Hamiltonian                  GFN2-xTB          :
         :: gradient norm              0.000629052020 Eh/a0 ::
         :: HOMO-LUMO gap              3.163948753387 eV    ::
         :: SCC energy                -9.712934377469 Eh    ::
         :: -> dispersion             -0.001955651496 Eh    ::
         :: repulsion energy           0.128073231218 Eh    ::

    * Orbital Energies and Occupations

         #    Occupation            Energy/Eh            Energy/eV
      -------------------------------------------------------------
         1        2.0000           -0.7491259             -20.3848
         2        2.0000           -0.6416349             -17.4598
         3        2.0000           -0.6347586             -17.2727
         4        2.0000           -0.5913959             -16.0927
         5        2.0000           -0.5429872             -14.7754
         6        2.0000           -0.5241290             -14.2623
         7        2.0000           -0.4848853             -13.1944
         8        2.0000           -0.4384505             -11.9308
         9        2.0000           -0.4317405             -11.7483 (HOMO)
        10                         -0.3154673              -8.5843 (LUMO)
        11                         -0.2811982              -7.6518
        12                         -0.2769404              -7.5359
        13                          0.0586178               1.5951
        14                          0.0752035               2.0464
        15                          0.1252956               3.4095
        16                          0.2675212               7.2796
        17                          0.5973691              16.2552
      -------------------------------------------------------------
                  HL-Gap            0.1162731 Eh            3.1640 eV

     #   Z        covCN         q      C6AA      Î±(0)
     1   6 C      3.680     0.123    18.773     6.206
     2   6 C      2.626    -0.067    29.651     8.907
     3   6 C      2.752    -0.017    28.418     8.729
     4   7 N      2.486    -0.117    23.601     7.215
     5   1 H      0.927     0.078     2.003     2.213

Wiberg/Mayer (AO) data.
largest (>0.10) Wiberg bond orders for each atom
          total WBO             WBO to atom ...

molecular dipole:
                 x           y           z       tot (Debye)
 q only:        0.536       0.066       0.166
   full:        1.073      -0.101       0.304       2.846

 projected vibrational frequencies (cm-1)
eigval :       -0.00    -0.00    -0.00    -0.00     0.00     0.00
eigval :      588.10   634.58   762.95   813.22   954.29  1183.77
eigval :     1333.19  1505.04  3215.26

   temp. (K)  partition function   enthalpy   heat capacity  entropy
                                   cal/mol     cal/K/mol   cal/K/mol   J/K/mol
  10.00  VIB   1.00                    0.000      0.000     -0.000
         ROT   81.3                   29.809      2.981     11.720
         INT   81.3                   29.809      2.981     11.720
         TR   0.217E+25               49.681      4.968     20.838
         TOT                          79.4904     7.9490    32.5578   136.2218

       T/K    H(0)-H(T)+PV         H(T)/Eh          T*S/Eh         G(T)/Eh
   ------------------------------------------------------------------------
    298.15    0.432624E-02    0.293642E-01    0.289973E-01    0.366953E-03
    120.00    0.152451E-02    0.265625E-01    0.100073E-01    0.165552E-01
    100.00    0.126774E-02    0.263057E-01    0.810548E-02    0.182003E-01
     80.00    0.101351E-02    0.260515E-01    0.625756E-02    0.197939E-01
     60.00    0.760059E-03    0.257981E-01    0.447450E-02    0.213236E-01
     40.00    0.506704E-03    0.255447E-01    0.277760E-02    0.227671E-01
     20.00    0.253352E-03    0.252914E-01    0.121324E-02    0.240781E-01
     10.00    0.126676E-03    0.251647E-01    0.518842E-03    0.246458E-01 (used)
   ------------------------------------------------------------------------

         :::::::::::::::::::::::::::::::::::::::::::::::::::::
         ::                  THERMODYNAMIC                  ::
         :::::::::::::::::::::::::::::::::::::::::::::::::::::
         :: total free energy          -9.560215287347 Eh   ::
         ::.................................................::
         :: total energy               -9.584861120844 Eh   ::
         :: zero point energy           0.025037999064 Eh   ::
         :: G(RRHO) w/o ZPVE           -0.000392165567 Eh   ::
         :: G(RRHO) contrib.            0.024645833497 Eh   ::
         :::::::::::::::::::::::::::::::::::::::::::::::::::::

           -------------------------------------------------
          | TOTAL ENERGY               -9.584861120844 Eh   |
          | TOTAL ENTHALPY             -9.559696445764 Eh   |
          | TOTAL FREE ENERGY          -9.560215287347 Eh   |
          | GRADIENT NORM               0.000629022925 Eh/Î± |
          | HOMO-LUMO GAP               3.163953014073 eV   |
           -------------------------------------------------

 * finished run on 2020/05/12 at 11:45:00.570
