   * xtb version 6.2.2 (9d81278992624c895f80dd42a50cac0aa55982e2) compiled by '@Darwin' on 04/03/2020
          program call               : xtb --input C4N1_42_S_3.input C4N1_42_S_3.xyz --ohess --molden --namespace C4N1_42_S_3 output.out
          number of atoms            :                     5
          number of electrons        :                    21
          charge                     :                     0
          spin                       :                   1.5

   ID    Z sym.   atoms
    1    7 N      1
    2    6 C      2-5

          :  Hamiltonian                  GFN2-xTB          :
 * total energy  :   -10.8836557 Eh     change       -0.3690594E-09 Eh
 * total energy  :   -10.9253218 Eh     change       -0.4166612E-01 Eh
 * total energy  :   -10.9272617 Eh     change       -0.1939890E-02 Eh
 * total energy  :   -10.9401369 Eh     change       -0.1287519E-01 Eh
 * total energy  :   -10.9512713 Eh     change       -0.1113447E-01 Eh
 * total energy  :   -10.9608906 Eh     change       -0.9619290E-02 Eh
 * total energy  :   -10.9759459 Eh     change       -0.1505528E-01 Eh
 * total energy  :   -10.9943545 Eh     change       -0.1840859E-01 Eh
 * total energy  :   -11.0109142 Eh     change       -0.1655967E-01 Eh
 * total energy  :   -11.0156923 Eh     change       -0.4778199E-02 Eh
 * total energy  :   -11.0197736 Eh     change       -0.4081210E-02 Eh
 * total energy  :   -11.0224131 Eh     change       -0.2639572E-02 Eh
 * total energy  :   -11.0247767 Eh     change       -0.2363586E-02 Eh
 * total energy  :   -11.0256750 Eh     change       -0.8982912E-03 Eh
 * total energy  :   -11.0259838 Eh     change       -0.3088269E-03 Eh
 * total energy  :   -11.0260402 Eh     change       -0.5636688E-04 Eh
 * total energy  :   -11.0260720 Eh     change       -0.3184548E-04 Eh
 * total energy  :   -11.0260831 Eh     change       -0.1106175E-04 Eh
 * total energy  :   -11.0260840 Eh     change       -0.8774121E-06 Eh
   *** GEOMETRY OPTIMIZATION CONVERGED AFTER 19 ITERATIONS ***

 final structure:
================
5
 xtb: 6.2.2 (9d81278992624c895f80dd42a50cac0aa55982e2)
N         1.68258188124750    0.53341216048684    0.52817970370588
C         0.55421040327278    0.24026155971828    0.23096817164549
C        -1.17836909683854   -0.64172914112515   -0.60643269570117
C        -0.55302935039753   -0.67744550249157    0.61686904155284
C        -0.50539383728421    0.54550092341160   -0.76958422120304

          :  Hamiltonian                  GFN2-xTB          :
         :: gradient norm              0.000180318254 Eh/a0 ::
         :: HOMO-LUMO gap              1.749979590712 eV    ::
         :: SCC energy               -11.205334582894 Eh    ::
         :: -> dispersion             -0.002755622850 Eh    ::
         :: repulsion energy           0.179250572668 Eh    ::

    * Orbital Energies and Occupations

         #    Occupation            Energy/Eh            Energy/eV
      -------------------------------------------------------------
         1        2.0000           -0.7382491             -20.0888
         2        2.0000           -0.7003102             -19.0564
         3        2.0000           -0.6305066             -17.1570
         4        2.0000           -0.6203337             -16.8801
         5        2.0000           -0.5674389             -15.4408
         6        2.0000           -0.5668840             -15.4257
         7        2.0000           -0.5040867             -13.7169
         8        2.0000           -0.4914527             -13.3731
         9        2.0000           -0.4683819             -12.7453
        10        1.0000           -0.4484704             -12.2035
        11        1.0000           -0.4259784             -11.5915
        12        1.0000           -0.3835725             -10.4375 (HOMO)
        13                         -0.3192619              -8.6876 (LUMO)
        14                         -0.3110660              -8.4645
        15                         -0.1993628              -5.4249
        16                          0.0699408               1.9032
        17                          0.1003671               2.7311
        18                          0.1994831               5.4282
        19                          0.4237212              11.5300
        20                          0.8221837              22.3728
      -------------------------------------------------------------
                  HL-Gap            0.0643106 Eh            1.7500 eV

     #   Z        covCN         q      C6AA      Î±(0)
     1   7 N      0.912    -0.153    24.307     7.130
     2   6 C      3.128     0.198    23.623     7.958
     3   6 C      2.223     0.043    29.226     8.753
     4   6 C      2.731    -0.044    29.074     8.828
     5   6 C      2.731    -0.044    29.075     8.828

Wiberg/Mayer (AO) data.
largest (>0.10) Wiberg bond orders for each atom
          total WBO             WBO to atom ...

molecular dipole:
                 x           y           z       tot (Debye)
 q only:       -0.287      -0.106      -0.103
   full:       -0.452      -0.145      -0.143       1.259

 projected vibrational frequencies (cm-1)
eigval :       -0.00    -0.00     0.00     0.00     0.00     0.00
eigval :      245.25   369.81   502.84   512.82   628.21   836.38
eigval :      957.69  1470.71  1854.92

   temp. (K)  partition function   enthalpy   heat capacity  entropy
                                   cal/mol     cal/K/mol   cal/K/mol   J/K/mol
  10.00  VIB   1.00                    0.000      0.000     -0.004
         ROT   208.                   29.809      2.981     13.586
         INT   208.                   29.809      2.981     13.583
         TR   0.290E+25               49.681      4.968     21.419
         TOT                          79.4904     7.9490    35.0020   146.4482

       T/K    H(0)-H(T)+PV         H(T)/Eh          T*S/Eh         G(T)/Eh
   ------------------------------------------------------------------------
    298.15    0.531040E-02    0.221202E-01    0.317475E-01   -0.962731E-02
    120.00    0.161497E-02    0.184247E-01    0.105926E-01    0.783212E-02
    100.00    0.131230E-02    0.181221E-01    0.855161E-02    0.957045E-02
     80.00    0.102987E-02    0.178396E-01    0.658953E-02    0.112501E-01
     60.00    0.763447E-03    0.175732E-01    0.471251E-02    0.128607E-01
     40.00    0.506872E-03    0.173166E-01    0.293378E-02    0.143828E-01
     20.00    0.253352E-03    0.170631E-01    0.129119E-02    0.157719E-01
     10.00    0.126676E-03    0.169364E-01    0.557792E-03    0.163786E-01 (used)
   ------------------------------------------------------------------------

         :::::::::::::::::::::::::::::::::::::::::::::::::::::
         ::                  THERMODYNAMIC                  ::
         :::::::::::::::::::::::::::::::::::::::::::::::::::::
         :: total free energy         -11.009705350820 Eh   ::
         ::.................................................::
         :: total energy              -11.026083986805 Eh   ::
         :: zero point energy           0.016809751642 Eh   ::
         :: G(RRHO) w/o ZPVE           -0.000431115657 Eh   ::
         :: G(RRHO) contrib.            0.016378635985 Eh   ::
         :::::::::::::::::::::::::::::::::::::::::::::::::::::

           -------------------------------------------------
          | TOTAL ENERGY              -11.026083986805 Eh   |
          | TOTAL ENTHALPY            -11.009147559147 Eh   |
          | TOTAL FREE ENERGY         -11.009705350820 Eh   |
          | GRADIENT NORM               0.000180561055 Eh/Î± |
          | HOMO-LUMO GAP               1.749979333296 eV   |
           -------------------------------------------------

 * finished run on 2020/05/12 at 11:44:17.556
