   * xtb version 6.2.2 (9d81278992624c895f80dd42a50cac0aa55982e2) compiled by '@Darwin' on 04/03/2020
          program call               : xtb --input C5_20_S_0.input C5_20_S_0.xyz --ohess --molden --namespace C5_20_S_0 output.out
          number of atoms            :                     5
          number of electrons        :                    20
          charge                     :                     0
          spin                       :                   0.0

   ID    Z sym.   atoms
    1    6 C      1-5

          :  Hamiltonian                  GFN2-xTB          :
 * total energy  :   -10.1811067 Eh     change        0.6176499E-09 Eh
 * total energy  :   -10.2316105 Eh     change       -0.5050387E-01 Eh
 * total energy  :   -10.2435184 Eh     change       -0.1190790E-01 Eh
 * total energy  :   -10.2456721 Eh     change       -0.2153700E-02 Eh
 * total energy  :   -10.2465446 Eh     change       -0.8724752E-03 Eh
 * total energy  :   -10.2472217 Eh     change       -0.6770636E-03 Eh
 * total energy  :   -10.2474668 Eh     change       -0.2451421E-03 Eh
 * total energy  :   -10.2475102 Eh     change       -0.4342085E-04 Eh
 * total energy  :   -10.2475111 Eh     change       -0.9059495E-06 Eh
   *** GEOMETRY OPTIMIZATION CONVERGED AFTER 9 ITERATIONS ***

 final structure:
================
5
 xtb: 6.2.2 (9d81278992624c895f80dd42a50cac0aa55982e2)
C        -0.32719210375965    0.80874569624052    0.66354135623690
C        -0.73521781250061   -0.54621063387040   -0.60209651051879
C         0.11284931937727    0.62071501107609   -0.70090117873850
C         1.06240997327823   -0.26253022667100   -0.06144544992455
C        -0.11284837639524   -0.62072084677521    0.70090178294494

          :  Hamiltonian                  GFN2-xTB          :
         :: gradient norm              0.000502068512 Eh/a0 ::
         :: HOMO-LUMO gap              2.779175512757 eV    ::
         :: SCC energy               -10.392092340083 Eh    ::
         :: -> dispersion             -0.002393651372 Eh    ::
         :: repulsion energy           0.144581180446 Eh    ::

    * Orbital Energies and Occupations

         #    Occupation            Energy/Eh            Energy/eV
      -------------------------------------------------------------
         1        2.0000           -0.7769377             -21.1415
         2        2.0000           -0.6564081             -17.8618
         3        2.0000           -0.6564077             -17.8618
         4        2.0000           -0.6480199             -17.6335
         5        2.0000           -0.5376428             -14.6300
         6        2.0000           -0.5376420             -14.6300
         7        2.0000           -0.4991090             -13.5814
         8        2.0000           -0.4781303             -13.0106
         9        2.0000           -0.4750724             -12.9274
        10        2.0000           -0.4750722             -12.9274 (HOMO)
        11                         -0.3729393             -10.1482 (LUMO)
        12                         -0.3266325              -8.8881
        13                         -0.3266310              -8.8881
        14                         -0.2968634              -8.0781
        15                          0.0155216               0.4224
        16                          0.0155251               0.4225
        17                          0.1095631               2.9814
        18                          0.1095649               2.9814
        19                          0.1409415               3.8352
        20                          0.5515018              15.0071
      -------------------------------------------------------------
                  HL-Gap            0.1021328 Eh            2.7792 eV

     #   Z        covCN         q      C6AA      Î±(0)
     1   6 C      3.341    -0.054    26.626     8.157
Molecule has the following symmetry elements: (C3) 3*(C2) (S3) 4*(sigma)
It seems to be the D3h point group
     2   6 C      3.341    -0.054    26.627     8.157
     3   6 C      3.651     0.080    19.540     6.349
     4   6 C      3.341    -0.054    26.627     8.157
     5   6 C      3.651     0.080    19.540     6.349

Wiberg/Mayer (AO) data.
largest (>0.10) Wiberg bond orders for each atom
          total WBO             WBO to atom ...

molecular dipole:
                 x           y           z       tot (Debye)
 q only:        0.000       0.000      -0.000
   full:        0.000       0.000      -0.000       0.000

 projected vibrational frequencies (cm-1)
eigval :       -0.00    -0.00    -0.00    -0.00    -0.00    -0.00
eigval :      465.47   465.59   663.63   883.49   883.51  1123.59
eigval :     1137.46  1137.60  1399.06

   temp. (K)  partition function   enthalpy   heat capacity  entropy
                                   cal/mol     cal/K/mol   cal/K/mol   J/K/mol
  10.00  VIB   1.00                    0.000      0.000     -0.001
         ROT   22.1                   29.809      2.981      9.135
         INT   22.1                   29.809      2.981      9.135
         TR   0.277E+25               49.681      4.968     21.322
         TOT                          79.4904     7.9490    30.4565   127.4300

       T/K    H(0)-H(T)+PV         H(T)/Eh          T*S/Eh         G(T)/Eh
   ------------------------------------------------------------------------
    298.15    0.459489E-02    0.231834E-01    0.283980E-01   -0.521466E-02
    120.00    0.153743E-02    0.201259E-01    0.962094E-02    0.105050E-01
    100.00    0.127224E-02    0.198607E-01    0.777589E-02    0.120848E-01
     80.00    0.101441E-02    0.196029E-01    0.599073E-02    0.136122E-01
     60.00    0.760117E-03    0.193486E-01    0.427368E-02    0.150749E-01
     40.00    0.506704E-03    0.190952E-01    0.264368E-02    0.164515E-01
     20.00    0.253352E-03    0.188418E-01    0.114627E-02    0.176956E-01
     10.00    0.126676E-03    0.187152E-01    0.485355E-03    0.182298E-01 (used)
   ------------------------------------------------------------------------

         :::::::::::::::::::::::::::::::::::::::::::::::::::::
         ::                  THERMODYNAMIC                  ::
         :::::::::::::::::::::::::::::::::::::::::::::::::::::
         :: total free energy         -10.229281342852 Eh   ::
         ::.................................................::
         :: total energy              -10.247511142320 Eh   ::
         :: zero point energy           0.018588478807 Eh   ::
         :: G(RRHO) w/o ZPVE           -0.000358679340 Eh   ::
         :: G(RRHO) contrib.            0.018229799468 Eh   ::
         :::::::::::::::::::::::::::::::::::::::::::::::::::::

           -------------------------------------------------
          | TOTAL ENERGY              -10.247511142320 Eh   |
          | TOTAL ENTHALPY            -10.228795987497 Eh   |
          | TOTAL FREE ENERGY         -10.229281342852 Eh   |
          | GRADIENT NORM               0.000502063697 Eh/Î± |
          | HOMO-LUMO GAP               2.779175696331 eV   |
           -------------------------------------------------

 * finished run on 2020/05/12 at 11:44:40.307
