   * xtb version 6.2.2 (9d81278992624c895f80dd42a50cac0aa55982e2) compiled by '@Darwin' on 04/03/2020
          program call               : xtb --input C4N1_54_S_1.input C4N1_54_S_1.xyz --ohess --molden --namespace C4N1_54_S_1 output.out
          number of atoms            :                     5
          number of electrons        :                    21
          charge                     :                     0
          spin                       :                   0.5

   ID    Z sym.   atoms
    1    6 C      1-3, 5
    2    7 N      4

          :  Hamiltonian                  GFN2-xTB          :
 * total energy  :   -10.9967338 Eh     change       -0.3191120E-08 Eh
 * total energy  :   -11.0259165 Eh     change       -0.2918274E-01 Eh
 * total energy  :   -11.0448174 Eh     change       -0.1890081E-01 Eh
 * total energy  :   -11.0554542 Eh     change       -0.1063680E-01 Eh
 * total energy  :   -11.0555218 Eh     change       -0.6766687E-04 Eh
 * total energy  :   -11.0556201 Eh     change       -0.9827139E-04 Eh
 * total energy  :   -11.0557614 Eh     change       -0.1413070E-03 Eh
 * total energy  :   -11.0560291 Eh     change       -0.2677462E-03 Eh
 * total energy  :   -11.0565677 Eh     change       -0.5385231E-03 Eh
 * total energy  :   -11.0574945 Eh     change       -0.9268322E-03 Eh
 * total energy  :   -11.0704012 Eh     change       -0.4858609E-03 Eh
 * total energy  :   -11.0705795 Eh     change       -0.1782639E-03 Eh
 * total energy  :   -11.0706915 Eh     change       -0.1120222E-03 Eh
 * total energy  :   -11.0708036 Eh     change       -0.1120883E-03 Eh
 * total energy  :   -11.0708282 Eh     change       -0.2467903E-04 Eh
 * total energy  :   -11.0708601 Eh     change       -0.3183461E-04 Eh
 * total energy  :   -11.0708670 Eh     change       -0.6912082E-05 Eh
 * total energy  :   -11.0708759 Eh     change       -0.8955171E-05 Eh
 * total energy  :   -11.0708782 Eh     change       -0.2221510E-05 Eh
   *** GEOMETRY OPTIMIZATION CONVERGED AFTER 28 ITERATIONS ***

 final structure:
================
5
 xtb: 6.2.2 (9d81278992624c895f80dd42a50cac0aa55982e2)
C         1.01659930725764   -0.07278099653350    0.38439055478364
C         0.17874902415338    0.93316102614484   -0.20930434937824
C        -0.93776441282466    0.09304623764612   -0.54571000711375
N        -0.40005340047254   -0.10323399145247    0.82164856924321
C         0.14246948188618   -0.85019327580499   -0.45102476753486

          :  Hamiltonian                  GFN2-xTB          :
         :: gradient norm              0.000448427673 Eh/a0 ::
         :: HOMO-LUMO gap              2.480968792773 eV    ::
         :: SCC energy               -11.198722507481 Eh    ::
         :: -> dispersion             -0.002479601319 Eh    ::
         :: repulsion energy           0.127844324477 Eh    ::

    * Orbital Energies and Occupations

         #    Occupation            Energy/Eh            Energy/eV
      -------------------------------------------------------------
         1        2.0000           -0.7940901             -21.6083
         2        2.0000           -0.6840161             -18.6130
         3        2.0000           -0.6660991             -18.1255
         4        2.0000           -0.6416504             -17.4602
         5        2.0000           -0.5506741             -14.9846
         6        2.0000           -0.5398920             -14.6912
         7        2.0000           -0.5042115             -13.7203
         8        2.0000           -0.5014937             -13.6463
         9        2.0000           -0.4972382             -13.5305
        10        2.0000           -0.4770966             -12.9825
        11        1.0000           -0.4216300             -11.4731 (HOMO)
        12                         -0.3304561              -8.9922 (LUMO)
        13                         -0.2454523              -6.6791
        14                         -0.2378174              -6.4713
        15                         -0.0967705              -2.6333
        16                         -0.0619609              -1.6860
        17                          0.0807997               2.1987
        18                          0.0932561               2.5376
        19                          0.2317197               6.3054
        20                          0.4132017              11.2438
      -------------------------------------------------------------
                  HL-Gap            0.0911739 Eh            2.4810 eV

     #   Z        covCN         q      C6AA      Î±(0)
     1   6 C      3.043     0.026    27.378     8.582
     2   6 C      3.690     0.015    20.499     6.480
     3   6 C      3.043     0.026    27.373     8.581
     4   7 N      3.594    -0.084    22.859     7.101
     5   6 C      3.690     0.015    20.499     6.480

Wiberg/Mayer (AO) data.
largest (>0.10) Wiberg bond orders for each atom
          total WBO             WBO to atom ...

molecular dipole:
                 x           y           z       tot (Debye)
 q only:        0.076       0.020      -0.157
   full:       -0.013      -0.003       0.027       0.076

 projected vibrational frequencies (cm-1)
eigval :       -0.00    -0.00     0.00     0.00     0.00     0.00
eigval :      298.47   431.59   698.53   774.11  1041.08  1049.60
eigval :     1080.65  1323.50  1421.76
Molecule has the following symmetry elements: (C2) 2*(sigma)
It seems to be the C2v point group

   temp. (K)  partition function   enthalpy   heat capacity  entropy
                                   cal/mol     cal/K/mol   cal/K/mol   J/K/mol
  10.00  VIB   1.00                    0.000      0.000     -0.002
         ROT   63.1                   29.809      2.981     11.216
         INT   63.1                   29.809      2.981     11.215
         TR   0.290E+25               49.681      4.968     21.419
         TOT                          79.4904     7.9490    32.6340   136.5406

       T/K    H(0)-H(T)+PV         H(T)/Eh          T*S/Eh         G(T)/Eh
   ------------------------------------------------------------------------
    298.15    0.478395E-02    0.232810E-01    0.297887E-01   -0.650770E-02
    120.00    0.157147E-02    0.200686E-01    0.100817E-01    0.998686E-02
    100.00    0.128973E-02    0.197868E-01    0.814482E-02    0.116420E-01
     80.00    0.102063E-02    0.195177E-01    0.627591E-02    0.132418E-01
     60.00    0.761180E-03    0.192583E-01    0.448321E-02    0.147751E-01
     40.00    0.506734E-03    0.190038E-01    0.278257E-02    0.162213E-01
     20.00    0.253352E-03    0.187504E-01    0.121569E-02    0.175348E-01
     10.00    0.126676E-03    0.186238E-01    0.520056E-03    0.181037E-01 (used)
   ------------------------------------------------------------------------

         :::::::::::::::::::::::::::::::::::::::::::::::::::::
         ::                  THERMODYNAMIC                  ::
         :::::::::::::::::::::::::::::::::::::::::::::::::::::
         :: total free energy         -11.052774455434 Eh   ::
         ::.................................................::
         :: total energy              -11.070878169094 Eh   ::
         :: zero point energy           0.018497093508 Eh   ::
         :: G(RRHO) w/o ZPVE           -0.000393379848 Eh   ::
         :: G(RRHO) contrib.            0.018103713660 Eh   ::
         :::::::::::::::::::::::::::::::::::::::::::::::::::::

           -------------------------------------------------
          | TOTAL ENERGY              -11.070878169094 Eh   |
          | TOTAL ENTHALPY            -11.052254399570 Eh   |
          | TOTAL FREE ENERGY         -11.052774455434 Eh   |
          | GRADIENT NORM               0.000448414927 Eh/Î± |
          | HOMO-LUMO GAP               2.480968469114 eV   |
           -------------------------------------------------

 * finished run on 2020/05/12 at 11:44:22.722
