   * xtb version 6.2.2 (9d81278992624c895f80dd42a50cac0aa55982e2) compiled by '@Darwin' on 04/03/2020
          program call               : xtb --input H2C3_0_S_0.input H2C3_0_S_0.xyz --ohess --molden --namespace H2C3_0_S_0 output.out
          number of atoms            :                     5
          number of electrons        :                    14
          charge                     :                     0
          spin                       :                   0.0

   ID    Z sym.   atoms
    1    6 C      1-3
    2    1 H      4, 5

          :  Hamiltonian                  GFN2-xTB          :
 * total energy  :    -7.0111185 Eh     change        0.1265459E-09 Eh
 * total energy  :    -7.0307298 Eh     change       -0.1961129E-01 Eh
 * total energy  :    -7.0765692 Eh     change       -0.4583937E-01 Eh
 * total energy  :    -7.1026063 Eh     change       -0.2603711E-01 Eh
 * total energy  :    -7.1054752 Eh     change       -0.2868883E-02 Eh
 * total energy  :    -7.1059196 Eh     change       -0.4444578E-03 Eh
 * total energy  :    -7.1059629 Eh     change       -0.4325697E-04 Eh
 * total energy  :    -7.1059791 Eh     change       -0.1623399E-04 Eh
 * total energy  :    -7.1059793 Eh     change       -0.1724268E-06 Eh
   *** GEOMETRY OPTIMIZATION CONVERGED AFTER 9 ITERATIONS ***

 final structure:
================
5
 xtb: 6.2.2 (9d81278992624c895f80dd42a50cac0aa55982e2)
C        -0.00410733605835   -0.23685784110318    0.01405453230805
C         0.79314813972869    0.97542618660505   -0.06586869383502
C        -0.75883505439626    1.00319052787207   -0.05154004279724
H        -0.00604894442368   -0.81877997418571    0.93232116654589
H        -0.02415580485040   -0.92297989918823   -0.82896696222169

          :  Hamiltonian                  GFN2-xTB          :
         :: gradient norm              0.000219209618 Eh/a0 ::
         :: HOMO-LUMO gap              0.442777530885 eV    ::
         :: SCC energy                -7.196519528602 Eh    ::
         :: -> dispersion             -0.001453122004 Eh    ::
         :: repulsion energy           0.090540204065 Eh    ::

    * Orbital Energies and Occupations

         #    Occupation            Energy/Eh            Energy/eV
      -------------------------------------------------------------
         1        2.0000           -0.6813026             -18.5392
         2        2.0000           -0.5950444             -16.1920
         3        2.0000           -0.5534258             -15.0595
         4        2.0000           -0.5375606             -14.6278
         5        2.0000           -0.4547947             -12.3756
         6        2.0000           -0.4062764             -11.0553
         7        1.9996           -0.3953829             -10.7589 (HOMO)
         8        0.0004           -0.3791111             -10.3161 (LUMO)
         9                         -0.2862831              -7.7902
        10                         -0.0693588              -1.8874
        11                          0.1240691               3.3761
        12                          0.1647669               4.4835
        13                          0.2096051               5.7036
        14                          0.3280100               8.9256
      -------------------------------------------------------------
                  HL-Gap            0.0162718 Eh            0.4428 eV

     #   Z        covCN         q      C6AA      Î±(0)
     1   6 C      3.808    -0.020    20.924     6.512
     2   6 C      1.951    -0.121    34.458     9.480
     3   6 C      1.951    -0.121    34.458     9.480
     4   1 H      0.925     0.131     1.527     1.933
     5   1 H      0.925     0.131     1.527     1.933

Wiberg/Mayer (AO) data.
largest (>0.10) Wiberg bond orders for each atom
          total WBO             WBO to atom ...

molecular dipole:
                 x           y           z       tot (Debye)
 q only:       -0.015      -0.875       0.052
   full:       -0.026      -1.528       0.091       3.890

 projected vibrational frequencies (cm-1)
eigval :       -0.00    -0.00    -0.00     0.00     0.00     0.00
eigval :    -1058.71  -272.90   864.34   907.79  1063.03  1123.60
eigval :     1368.14  2958.52  2983.86

   temp. (K)  partition function   enthalpy   heat capacity  entropy
                                   cal/mol     cal/K/mol   cal/K/mol   J/K/mol
  10.00  VIB   1.00                    0.000      0.000     -0.000
         ROT   21.9                   29.809      2.981      9.111
         INT   21.9                   29.809      2.981      9.111
         TR   0.139E+25               49.681      4.968     19.962
         TOT                          79.4904     7.9490    29.0730   121.6414

       T/K    H(0)-H(T)+PV         H(T)/Eh          T*S/Eh         G(T)/Eh
   ------------------------------------------------------------------------
    298.15    0.395106E-02    0.296244E-01    0.268440E-01    0.278043E-02
    120.00    0.152034E-02    0.271937E-01    0.933614E-02    0.178575E-01
    100.00    0.126679E-02    0.269401E-01    0.754905E-02    0.193911E-01
     80.00    0.101341E-02    0.266867E-01    0.581315E-02    0.208736E-01
     60.00    0.760056E-03    0.264334E-01    0.414127E-02    0.222921E-01
     40.00    0.506704E-03    0.261800E-01    0.255546E-02    0.236246E-01
     20.00    0.253352E-03    0.259267E-01    0.110217E-02    0.248245E-01
     10.00    0.126676E-03    0.258000E-01    0.463308E-03    0.253367E-01 (used)
   ------------------------------------------------------------------------

         :::::::::::::::::::::::::::::::::::::::::::::::::::::
         ::                  THERMODYNAMIC                  ::
         :::::::::::::::::::::::::::::::::::::::::::::::::::::
         :: total free energy          -7.080642609122 Eh   ::
         ::.................................................::
         :: total energy               -7.105979298926 Eh   ::
         :: zero point energy           0.025673321507 Eh   ::
         :: G(RRHO) w/o ZPVE           -0.000336631704 Eh   ::
         :: G(RRHO) contrib.            0.025336689804 Eh   ::
         :::::::::::::::::::::::::::::::::::::::::::::::::::::

           -------------------------------------------------
          | TOTAL ENERGY               -7.105979298926 Eh   |
          | TOTAL ENTHALPY             -7.080179301403 Eh   |
          | TOTAL FREE ENERGY          -7.080642609122 Eh   |
          | GRADIENT NORM               0.000219294934 Eh/Î± |
          | HOMO-LUMO GAP               0.442777093040 eV   |
           -------------------------------------------------

 * finished run on 2020/05/12 at 11:44:25.737
