 Gaussian 16, Revision B.01,

 --------------------------------------------------------
 #P M062X/cc-pvtz nosymm opt(noeigentest) optcyc=120 freq
 --------------------------------------------------------

 -----
 Title
 -----
 Symbolic Z-matrix:
 Charge =  0 Multiplicity = 2

 SCF Done:  E(UM062X) =  -92.7059897739     A.U. after   16 cycles
 SCF Done:  E(UM062X) =  -92.7096937434     A.U. after   16 cycles
 SCF Done:  E(UM062X) =  -92.7096943216     A.U. after   10 cycles
 Optimization completed.
    -- Stationary point found.
 Normal termination of Gaussian 16 at Fri Oct  2 14:52:24 2020.

 -------------------------------------------------------------------
 #P Geom=AllCheck Guess=TCheck SCRF=Check GenChk UM062X/CC-pVTZ Freq
 -------------------------------------------------------------------

 Structure from the checkpoint file:  "input.chk"
 -----
 Title
 -----
 Charge =  0 Multiplicity = 2

 SCF Done:  E(UM062X) =  -92.7096943216     A.U. after    1 cycles

  Exact polarizability:  15.034   0.000  15.034  -0.000   0.000  20.965
 Approx polarizability:  12.671  -0.000  12.671   0.000   0.000  33.011

                      1
                      A
 Frequencies --   2242.0720
 Red. masses --     12.8481
 Frc consts  --     38.0531
 IR Inten    --     13.9210

 - Thermochemistry -
 -------------------
 Temperature   298.150 Kelvin.  Pressure   1.00000 Atm.
 Atom     1 has atomic number  6 and mass  12.00000

 Molecular mass:    26.00307 amu.
 Principal axes and moments of inertia in atomic units:
                           1         2         3
     Eigenvalues --     0.00000  30.68418  30.68418
           X            0.00000  -0.00000   1.00000
           Y            0.00000   1.00000   0.00000
           Z            1.00000   0.00000   0.00000
 This molecule is a prolate symmetric top.
 Rotational symmetry number  1.
 Rotational temperature (Kelvin)      2.82275
 Rotational constant (GHZ):          58.816659
 Zero-point vibrational energy      13410.6 (Joules/Mol)
                                    3.20520 (Kcal/Mol)
 Vibrational temperatures:   3225.84
          (Kelvin)

 Zero-point correction=                           0.005108 (Hartree/Particle)
 Thermal correction to Energy=                    0.007468
 Thermal correction to Enthalpy=                  0.008413
 Thermal correction to Gibbs Free Energy=        -0.014550
 Sum of electronic and zero-point Energies=            -92.704587
 Sum of electronic and thermal Energies=               -92.702226
 Sum of electronic and thermal Enthalpies=             -92.701282
 Sum of electronic and thermal Free Energies=          -92.724244

                     E (Thermal)             CV                S
                      KCal/Mol        Cal/Mol-Kelvin    Cal/Mol-Kelvin
 Total                    4.687              4.973             48.328
 Electronic               0.000              0.000              1.377
 Translational            0.889              2.981             35.703
 Rotational               0.592              1.987             11.247
 Vibrational              3.205              0.005              0.000

 Optimization completed.
    -- Stationary point found.
 Normal termination of Gaussian 16 at Fri Oct  2 14:52:32 2020.
 Gaussian 16:  ES64L-G16RevB.01 20-Dec-2017

 -------------------------------------------------
 #P ROCCSD(T)/aug-cc-pvtz geom=allcheck guess=read
 -------------------------------------------------

 Structure from the checkpoint file:  "input.chk"
 -----
 Title
 -----
 Charge =  0 Multiplicity = 2

                         Standard orientation:
 ---------------------------------------------------------------------
 Center     Atomic      Atomic             Coordinates (Angstroms)
 Number     Number       Type             X           Y           Z
 ---------------------------------------------------------------------
      1          6           0        0.000000    0.000000   -0.620902
      2          7           0        0.000000    0.000000    0.532202
 ---------------------------------------------------------------------

 SCF Done:  E(ROHF) =  -92.2213954304     A.U. after   14 cycles
 E2 =    -0.3235374727D+00 EUMP2 =    -0.92544932903112D+02
 CCSD(T)
 CCSD(T)= -0.92571492094D+02

 The electronic state is 2-SG.
 Alpha  occ. eigenvalues --  -15.62621 -11.36394  -1.27655  -0.72653  -0.58948
 Alpha  occ. eigenvalues --   -0.52871  -0.52871
 Alpha virt. eigenvalues --    0.06719   0.07319   0.07391   0.07391   0.13521
 Alpha virt. eigenvalues --    0.13521   0.15598   0.18792   0.18792   0.25533
 Alpha virt. eigenvalues --    0.29176   0.29176   0.35499   0.40064   0.40064

 Mulliken charges and spin densities:
               1          2
     1  C    0.161513   0.875213
     2  N   -0.161513   0.124787
 Sum of Mulliken charges =  -0.00000   1.00000

 Dipole moment (field-independent basis, Debye):
    X=              0.0000    Y=             -0.0000    Z=             -2.3117  Tot=              2.3117
 Quadrupole moment (field-independent basis, Debye-Ang):
   XX=            -11.1174   YY=            -11.1174   ZZ=            -10.1767
   XY=              0.0000   XZ=              0.0000   YZ=              0.0000

 13954\PMP2-0=-92.5449329\MP4SDQ=-92.5498653\CCSD=-92.5517209\CCSD(T)=-
 Normal termination of Gaussian 16 at Fri Oct  2 14:53:08 2020.
