 Gaussian 16, Revision B.01,
 Gaussian 16:  ES64L-G16RevB.01 20-Dec-2017

 ----------------------
 #P CCSD(T)/aug-cc-pvtz
 ----------------------

 -----
 Title
 -----
 Symbolic Z-matrix:
 Charge =  1 Multiplicity = 1

                         Standard orientation:
 ---------------------------------------------------------------------
 Center     Atomic      Atomic             Coordinates (Angstroms)
 Number     Number       Type             X           Y           Z
 ---------------------------------------------------------------------
      1         11           0        0.000000    0.000000    0.000000
 ---------------------------------------------------------------------

 SCF Done:  E(RHF) =  -161.676018791     A.U. after    5 cycles
 E2 =     0.0000000000D+00 EUMP2 =    -0.16167601879064D+03

 The electronic state is 1-A1G.
 Alpha  occ. eigenvalues --  -40.76395  -3.07544  -1.79857  -1.79857  -1.79857
 Alpha virt. eigenvalues --   -0.18185  -0.10944  -0.10944  -0.10944  -0.07001
 Alpha virt. eigenvalues --   -0.04998  -0.04998  -0.04998  -0.04900  -0.04900
 Alpha virt. eigenvalues --   -0.04900  -0.04900  -0.04900  -0.00742  -0.00742

 Mulliken charges:
               1
     1  Na   1.000000
 Sum of Mulliken charges =   1.00000

 Dipole moment (field-independent basis, Debye):
    X=              0.0000    Y=              0.0000    Z=              0.0000  Tot=              0.0000
 Quadrupole moment (field-independent basis, Debye-Ang):
   XX=             -2.8791   YY=             -2.8791   ZZ=             -2.8791
   XY=             -0.0000   XZ=             -0.0000   YZ=              0.0000

 CSD=-161.6760188\CCSD(T)=-161.6760188\RMSD=4.310e-09\PG=OH [O(Na1)]\\@
 Normal termination of Gaussian 16 at Mon Oct  5 21:36:20 2020.
