   * xtb version 6.2.2 (9d81278992624c895f80dd42a50cac0aa55982e2) compiled by '@Darwin' on 04/03/2020
          program call               : xtb --input H3N1_0_S_0.input H3N1_0_S_0.xyz --ohess --molden --namespace H3N1_0_S_0 output.out
          number of atoms            :                     4
          number of electrons        :                     8
          charge                     :                     0
          spin                       :                   0.0

   ID    Z sym.   atoms
    1    7 N      1
    2    1 H      2-4

          :  Hamiltonian                  GFN2-xTB          :
 * total energy  :    -4.4241954 Eh     change        0.7004441E-10 Eh
 * total energy  :    -4.4260473 Eh     change       -0.1851847E-02 Eh
 * total energy  :    -4.4262353 Eh     change       -0.1879988E-03 Eh
 * total energy  :    -4.4262434 Eh     change       -0.8109249E-05 Eh
 * total energy  :    -4.4262440 Eh     change       -0.6699820E-06 Eh
   *** GEOMETRY OPTIMIZATION CONVERGED AFTER 5 ITERATIONS ***

 final structure:
================
4
 xtb: 6.2.2 (9d81278992624c895f80dd42a50cac0aa55982e2)
N        -0.00159135272324   -0.00945227155712    0.27492741087054
H         0.92907496363512   -0.16629111385195   -0.09209254185697
H        -0.61040655737239   -0.71578060057518   -0.11989685088620
H        -0.31707605353949    0.89152398598425   -0.06293801812737

          :  Hamiltonian                  GFN2-xTB          :
         :: gradient norm              0.000038661543 Eh/a0 ::
         :: HOMO-LUMO gap             12.233509526543 eV    ::
         :: SCC energy                -4.482402393039 Eh    ::
         :: -> dispersion             -0.000366929010 Eh    ::
         :: repulsion energy           0.056158356500 Eh    ::

    * Orbital Energies and Occupations

         #    Occupation            Energy/Eh            Energy/eV
      -------------------------------------------------------------
         1        2.0000           -0.5948307             -16.1862
         2        2.0000           -0.5010639             -13.6346
         3        2.0000           -0.5010639             -13.6346
         4        2.0000           -0.3859775             -10.5030 (HOMO)
         5                          0.0635957               1.7305 (LUMO)
         6                          0.2150077               5.8507
         7                          0.2150077               5.8507
      -------------------------------------------------------------
                  HL-Gap            0.4495732 Eh           12.2335 eV

     #   Z        covCN         q      C6AA      α(0)
     1   7 N      2.580    -0.428    31.190     8.294
     2   1 H      0.860     0.143     1.451     1.887
     3   1 H      0.860     0.143     1.451     1.887
     4   1 H      0.860     0.143     1.451     1.887

Wiberg/Mayer (AO) data.
largest (>0.10) Wiberg bond orders for each atom
          total WBO             WBO to atom ...

molecular dipole:
                 x           y           z       tot (Debye)
 q only:        0.002       0.010      -0.297
   full:        0.004       0.024      -0.701       1.783

 projected vibrational frequencies (cm-1)
eigval :       -0.00    -0.00    -0.00     0.00     0.00     0.00
eigval :     1160.30  1592.54  1592.78  3424.99  3476.97  3477.21

   temp. (K)  partition function   enthalpy   heat capacity  entropy
                                   cal/mol     cal/K/mol   cal/K/mol   J/K/mol
  10.00  VIB   1.00                    0.000      0.000     -0.000
         ROT  0.432                   29.809      2.981      1.311
         INT  0.432                   29.809      2.981      1.311
         TR   0.418E+24               49.681      4.968     17.567
         TOT                          79.4904     7.9490    18.8787    78.9885

       T/K    H(0)-H(T)+PV         H(T)/Eh          T*S/Eh         G(T)/Eh
   ------------------------------------------------------------------------
    298.15    0.380316E-02    0.373487E-01    0.218191E-01    0.155296E-01
    120.00    0.152012E-02    0.350656E-01    0.738641E-02    0.276792E-01
    100.00    0.126676E-02    0.348123E-01    0.592445E-02    0.288878E-01
     80.00    0.101341E-02    0.345589E-01    0.451349E-02    0.300454E-01
     60.00    0.760056E-03    0.343056E-01    0.316653E-02    0.311390E-01
     40.00    0.506704E-03    0.340522E-01    0.190563E-02    0.321466E-01
     20.00    0.253352E-03    0.337989E-01    0.777259E-03    0.330216E-01
     10.00    0.126676E-03    0.336722E-01    0.300851E-03    0.333713E-01 (used)
   ------------------------------------------------------------------------

         :::::::::::::::::::::::::::::::::::::::::::::::::::::
         ::                  THERMODYNAMIC                  ::
         :::::::::::::::::::::::::::::::::::::::::::::::::::::
         :: total free energy          -4.392872690851 Eh   ::
         ::.................................................::
         :: total energy               -4.426244035642 Eh   ::
         :: zero point energy           0.033545519943 Eh   ::
         :: G(RRHO) w/o ZPVE           -0.000174175152 Eh   ::
         :: G(RRHO) contrib.            0.033371344791 Eh   ::
         :::::::::::::::::::::::::::::::::::::::::::::::::::::

           -------------------------------------------------
          | TOTAL ENERGY               -4.426244035642 Eh   |
          | TOTAL ENTHALPY             -4.392571839683 Eh   |
          | TOTAL FREE ENERGY          -4.392872690851 Eh   |
          | GRADIENT NORM               0.000038661533 Eh/α |
          | HOMO-LUMO GAP              12.233509520326 eV   |
           -------------------------------------------------

 * finished run on 2020/05/12 at 11:44:27.641
