   * xtb version 6.2.2 (9d81278992624c895f80dd42a50cac0aa55982e2) compiled by '@Darwin' on 04/03/2020
          program call               : xtb --input H1C1N1_1_S_0.input H1C1N1_1_S_0.xyz --ohess --molden --namespace H1C1N1_1_S_0 output.out
          number of atoms            :                     3
          number of electrons        :                    10
          charge                     :                     0
          spin                       :                   0.0

   ID    Z sym.   atoms
    1    6 C      1
    2    7 N      2
    3    1 H      3

          :  Hamiltonian                  GFN2-xTB          :
 * total energy  :    -5.3676701 Eh     change        0.2724665E-10 Eh
 * total energy  :    -5.4371789 Eh     change       -0.6950871E-01 Eh
 * total energy  :    -5.4366726 Eh     change        0.5062555E-03 Eh
 * total energy  :    -5.4626339 Eh     change       -0.2596134E-01 Eh
 * total energy  :    -5.4668068 Eh     change       -0.4172871E-02 Eh
 * total energy  :    -5.4706109 Eh     change       -0.3804112E-02 Eh
 * total energy  :    -5.4716089 Eh     change       -0.9979467E-03 Eh
 * total energy  :    -5.4721214 Eh     change       -0.5125257E-03 Eh
 * total energy  :    -5.4721572 Eh     change       -0.3584411E-04 Eh
 * total energy  :    -5.4721593 Eh     change       -0.2089672E-05 Eh
   *** GEOMETRY OPTIMIZATION CONVERGED AFTER 10 ITERATIONS ***

 final structure:
================
3
 xtb: 6.2.2 (9d81278992624c895f80dd42a50cac0aa55982e2)
C         1.10263563285041    0.06800110016322    0.00000000000000
N        -0.05360296321351   -0.00489614260350   -0.00000000000000
H        -1.04903266963690   -0.06310495755972    0.00000000000000

          :  Hamiltonian                  GFN2-xTB          :
         :: gradient norm              0.000749643680 Eh/a0 ::
         :: HOMO-LUMO gap              5.798310572448 eV    ::
         :: SCC energy                -5.585785018637 Eh    ::
         :: -> dispersion             -0.000501733419 Eh    ::
         :: repulsion energy           0.113625687365 Eh    ::

    * Orbital Energies and Occupations

         #    Occupation            Energy/Eh            Energy/eV
      -------------------------------------------------------------
         1        2.0000           -0.6643865             -18.0789
         2        2.0000           -0.5886591             -16.0182
         3        2.0000           -0.4999998             -13.6057
         4        2.0000           -0.4999995             -13.6057
         5        2.0000           -0.4364507             -11.8764 (HOMO)
         6                         -0.2233667              -6.0781 (LUMO)
         7                         -0.2233649              -6.0781
         8                          0.0533927               1.4529
         9                          1.0151465              27.6235
      -------------------------------------------------------------
                  HL-Gap            0.2130840 Eh            5.7983 eV

     #   Z        covCN         q      C6AA      Î±(0)
     1   6 C      0.910    -0.105    38.743    10.417
     2   7 N      1.771    -0.078    23.463     7.173
     3   1 H      0.861     0.183     1.199     1.715

Wiberg/Mayer (AO) data.
largest (>0.10) Wiberg bond orders for each atom
          total WBO             WBO to atom ...

molecular dipole:
                 x           y           z       tot (Debye)
 q only:       -0.573      -0.035       0.000
   full:       -1.067      -0.064       0.000       2.718

   temp. (K)  partition function   enthalpy   heat capacity  entropy
                                   cal/mol     cal/K/mol   cal/K/mol   J/K/mol
  10.00  VIB   1.00                    0.000      0.000     -0.000
         ROT   4.52                   19.873      1.987      4.984
         INT   4.52                   19.873      1.987      4.984
         TR   0.835E+24               49.681      4.968     18.943
         TOT                          69.5541     6.9554    23.9266   100.1089

       T/K    H(0)-H(T)+PV         H(T)/Eh          T*S/Eh         G(T)/Eh
   ------------------------------------------------------------------------
    298.15    0.363495E-02    0.193806E-01    0.230267E-01   -0.364608E-02
    120.00    0.133461E-02    0.170803E-01    0.788475E-02    0.919551E-02
    100.00    0.110951E-02    0.168552E-01    0.636553E-02    0.104896E-01
     80.00    0.886862E-03    0.166325E-01    0.489379E-02    0.117387E-01
     60.00    0.665053E-03    0.164107E-01    0.347898E-02    0.129317E-01
     40.00    0.443366E-03    0.161890E-01    0.213961E-02    0.140494E-01
     20.00    0.221683E-03    0.159673E-01    0.916197E-03    0.150511E-01
     10.00    0.110842E-03    0.158565E-01    0.381295E-03    0.154752E-01 (used)
   ------------------------------------------------------------------------

         :::::::::::::::::::::::::::::::::::::::::::::::::::::
         ::                  THERMODYNAMIC                  ::
         :::::::::::::::::::::::::::::::::::::::::::::::::::::
         :: total free energy          -5.456684137885 Eh   ::
         ::.................................................::
         :: total energy               -5.472159332141 Eh   ::
         :: zero point energy           0.015745647420 Eh   ::
         :: G(RRHO) w/o ZPVE           -0.000270453164 Eh   ::
         :: G(RRHO) contrib.            0.015475194256 Eh   ::
         :::::::::::::::::::::::::::::::::::::::::::::::::::::

           -------------------------------------------------
          | TOTAL ENERGY               -5.472159332141 Eh   |
          | TOTAL ENTHALPY             -5.456302843208 Eh   |
          | TOTAL FREE ENERGY          -5.456684137885 Eh   |
          | GRADIENT NORM               0.000749592069 Eh/Î± |
          | HOMO-LUMO GAP               5.798310552681 eV   |
           -------------------------------------------------

 * finished run on 2020/05/12 at 11:44:25.045
