 Gaussian 16, Revision B.01,
 Gaussian 16:  ES64L-G16RevB.01 20-Dec-2017

 ------------------------
 #P ROCCSD(T)/aug-cc-pvtz
 ------------------------

 -----
 Title
 -----
 Symbolic Z-matrix:
 Charge =  1 Multiplicity = 2

                         Standard orientation:
 ---------------------------------------------------------------------
 Center     Atomic      Atomic             Coordinates (Angstroms)
 Number     Number       Type             X           Y           Z
 ---------------------------------------------------------------------
      1          6           0        0.000000    0.000000    0.000000
 ---------------------------------------------------------------------

 SCF Done:  E(ROHF) =  -37.2904919704     A.U. after   14 cycles
 E2 =    -0.5550883858D-01 EUMP2 =    -0.37346000808945D+02
 CCSD(T)
 CCSD(T)= -0.37370762258D+02

 Unable to determine electronic state:  an orbital has unidentified symmetry.
 Alpha  occ. eigenvalues --  -11.91266  -1.21828  -0.90411
 Alpha virt. eigenvalues --   -0.36592  -0.36592  -0.11853  -0.08197  -0.07419
 Alpha virt. eigenvalues --   -0.07419   0.06034   0.06034   0.06233   0.06233
 Alpha virt. eigenvalues --    0.06315   0.22233   0.25781   0.25781   0.39186

 Mulliken charges and spin densities:
               1          2
     1  C    1.000000   1.000000
 Sum of Mulliken charges =   1.00000   1.00000

 Dipole moment (field-independent basis, Debye):
    X=              0.0000    Y=              0.0000    Z=              0.0000  Tot=              0.0000
 Quadrupole moment (field-independent basis, Debye-Ang):
   XX=             -3.1300   YY=             -3.1300   ZZ=             -4.6158
   XY=              0.0000   XZ=             -0.0000   YZ=              0.0000

 0=-37.3460008\MP4SDQ=-37.3660058\CCSD=-37.3695038\CCSD(T)=-37.3707623\
 Normal termination of Gaussian 16 at Mon Oct  5 21:36:59 2020.
