 Gaussian 16, Revision B.01,

 --------------------------------------------------------
 #P M062X/cc-pvtz nosymm opt(noeigentest) optcyc=120 freq
 --------------------------------------------------------

 -----
 Title
 -----
 Symbolic Z-matrix:
 Charge =  0 Multiplicity = 1

 SCF Done:  E(RM062X) =  -194.029995886     A.U. after   13 cycles
 SCF Done:  E(RM062X) =  -194.032921027     A.U. after   11 cycles
 SCF Done:  E(RM062X) =  -194.032336336     A.U. after   11 cycles
 SCF Done:  E(RM062X) =  -194.033003582     A.U. after   10 cycles
 SCF Done:  E(RM062X) =  -194.033008174     A.U. after    8 cycles
 SCF Done:  E(RM062X) =  -194.033008579     A.U. after    7 cycles
 Optimization completed.
    -- Stationary point found.
 Normal termination of Gaussian 16 at Sat Sep 26 00:13:01 2020.

 -------------------------------------------------------------------
 #P Geom=AllCheck Guess=TCheck SCRF=Check GenChk RM062X/CC-pVTZ Freq
 -------------------------------------------------------------------

 Structure from the checkpoint file:  "input.chk"
 -----
 Title
 -----
 Charge =  0 Multiplicity = 1

 SCF Done:  E(RM062X) =  -194.033008579     A.U. after    1 cycles

  Exact polarizability:  63.179 -19.730  64.651  20.098 -14.202  49.697
 Approx polarizability:  75.250 -19.877  76.180  22.237 -14.307  60.365

                      1                      2                      3
                      A                      A                      A
 Frequencies --    169.3363               170.9332               200.1427
 Red. masses --      2.8210                 3.3071                 1.1636
 Frc consts  --      0.0477                 0.0569                 0.0275
 IR Inten    --      3.4174                 1.7230                 0.0725

                      4                      5                      6
                      A                      A                      A
 Frequencies --    395.0266               460.8843               551.2919
 Red. masses --      2.9855                 3.3634                 4.9705
 Frc consts  --      0.2745                 0.4209                 0.8901
 IR Inten    --      2.6599                 1.7170                 5.6582

                      7                      8                      9
                      A                      A                      A
 Frequencies --    678.9767               717.5408               828.8308
 Red. masses --      1.2946                 1.2876                 1.6441
 Frc consts  --      0.3516                 0.3906                 0.6654
 IR Inten    --     47.3278                40.1561                 0.0766

                     10                     11                     12
                      A                      A                      A
 Frequencies --    915.4986               998.1715              1052.8143
 Red. masses --      1.6649                 1.0709                 3.3661
 Frc consts  --      0.8221                 0.6287                 2.1983
 IR Inten    --      7.2211                42.4857                10.0426

                     13                     14                     15
                      A                      A                      A
 Frequencies --   1074.8695              1137.7681              1311.2064
 Red. masses --      1.5862                 2.1343                 1.2963
 Frc consts  --      1.0797                 1.6278                 1.3131
 IR Inten    --      1.1379                 0.0173                 2.7917

                     16                     17                     18
                      A                      A                      A
 Frequencies --   1333.4177              1413.6216              1481.1206
 Red. masses --      1.2880                 1.2758                 1.0436
 Frc consts  --      1.3492                 1.5022                 1.3489
 IR Inten    --      1.3178                 1.3023                 7.5207

                     19                     20                     21
                      A                      A                      A
 Frequencies --   1492.1530              1736.3292              2250.0216
 Red. masses --      1.0559                 6.0549                 5.9263
 Frc consts  --      1.3852                10.7552                17.6768
 IR Inten    --     13.1354                 7.2581                 7.6938

                     22                     23                     24
                      A                      A                      A
 Frequencies --   3057.1976              3111.6625              3143.5860
 Red. masses --      1.0361                 1.0995                 1.1013
 Frc consts  --      5.7058                 6.2725                 6.4123
 IR Inten    --     17.2293                 9.7126                 9.3251

                     25                     26                     27
                      A                      A                      A
 Frequencies --   3172.2598              3183.9869              3490.3304
 Red. masses --      1.0910                 1.0886                 1.1647
 Frc consts  --      6.4683                 6.5020                 8.3597
 IR Inten    --      3.8911                13.4501                81.2968

 - Thermochemistry -
 -------------------
 Temperature   298.150 Kelvin.  Pressure   1.00000 Atm.
 Atom     1 has atomic number  6 and mass  12.00000

 Molecular mass:    66.04695 amu.
 Principal axes and moments of inertia in atomic units:
                           1         2         3
     Eigenvalues --    46.41493 797.29289 832.65290
           X            0.63260   0.50841  -0.58424
           Y           -0.62651   0.77942  -0.00011
           Z            0.45531   0.36610   0.81158
 This molecule is an asymmetric top.
 Rotational symmetry number  1.
 Rotational temperatures (Kelvin)      1.86608     0.10864     0.10402
 Rotational constants (GHZ):          38.88278     2.26359     2.16746
 Zero-point vibrational energy     236435.8 (Joules/Mol)
                                   56.50951 (Kcal/Mol)
 Warning -- explicit consideration of   6 degrees of freedom as
           vibrations may cause significant error
 Vibrational temperatures:    243.64   245.93   287.96   568.36   663.11
          (Kelvin)            793.19   976.90  1032.38  1192.50  1317.20
                             1436.15  1514.76  1546.50  1636.99  1886.53
                             1918.49  2033.89  2131.00  2146.88  2498.19
                             3237.28  4398.63  4476.99  4522.92  4564.17
                             4581.05  5021.81

 Zero-point correction=                           0.090054 (Hartree/Particle)
 Thermal correction to Energy=                    0.095927
 Thermal correction to Enthalpy=                  0.096871
 Thermal correction to Gibbs Free Energy=         0.061699
 Sum of electronic and zero-point Energies=           -193.942955
 Sum of electronic and thermal Energies=              -193.937081
 Sum of electronic and thermal Enthalpies=            -193.936137
 Sum of electronic and thermal Free Energies=         -193.971310

                     E (Thermal)             CV                S
                      KCal/Mol        Cal/Mol-Kelvin    Cal/Mol-Kelvin
 Total                   60.195             20.088             74.027
 Electronic               0.000              0.000              0.000
 Translational            0.889              2.981             38.482
 Rotational               0.889              2.981             24.936
 Vibrational             58.418             14.126             10.609
 Vibration     1          0.625              1.880              2.443
 Vibration     2          0.626              1.878              2.425
 Vibration     3          0.638              1.840              2.132
 Vibration     4          0.762              1.481              0.981
 Vibration     5          0.819              1.337              0.764
 Vibration     6          0.907              1.137              0.542

 Optimization completed.
    -- Stationary point found.
 Normal termination of Gaussian 16 at Sat Sep 26 00:17:10 2020.
 Gaussian 16:  ES64L-G16RevB.01 20-Dec-2017

 -----------------------------------------------
 #P CCSD(T)/aug-cc-pvtz geom=allcheck guess=read
 -----------------------------------------------

 Structure from the checkpoint file:  "input.chk"
 -----
 Title
 -----
 Charge =  0 Multiplicity = 1

                         Standard orientation:
 ---------------------------------------------------------------------
 Center     Atomic      Atomic             Coordinates (Angstroms)
 Number     Number       Type             X           Y           Z
 ---------------------------------------------------------------------
      1          6           0        2.360444   -0.019520   -0.000005
      2          1           0        2.865226   -0.430724   -0.876103
      3          1           0        2.865127   -0.429937    0.876510
      4          1           0        2.491635    1.061247   -0.000519
      5          6           0        0.915860   -0.391392    0.000019
      6          1           0        0.674500   -1.448822    0.000017
      7          6           0       -0.084052    0.487799    0.000014
      8          1           0        0.131079    1.551068    0.000055
      9          6           0       -1.461630    0.116799   -0.000041
     10          6           0       -2.625981   -0.171915    0.000034
     11          1           0       -3.655411   -0.433456   -0.000095
 ---------------------------------------------------------------------

 SCF Done:  E(RHF) =  -192.819642316     A.U. after   13 cycles
 E2 =    -0.8076437902D+00 EUMP2 =    -0.19362728610632D+03
 CCSD(T)
 CCSD(T)= -0.19370063711D+03

 The electronic state is 1-A.
 Alpha  occ. eigenvalues --  -11.25146 -11.24824 -11.23359 -11.23192 -11.22145
 Alpha  occ. eigenvalues --   -1.10411  -1.02598  -0.94847  -0.80014  -0.72285
 Alpha  occ. eigenvalues --   -0.67191  -0.61139  -0.58017  -0.54832  -0.51807
 Alpha  occ. eigenvalues --   -0.45546  -0.39228  -0.33340
 Alpha virt. eigenvalues --    0.02923   0.03366   0.03835   0.04589   0.04969
 Alpha virt. eigenvalues --    0.06140   0.08395   0.09457   0.09725   0.09751
 Alpha virt. eigenvalues --    0.09895   0.11454   0.12154   0.12489   0.13168

 Mulliken charges:
               1
     1  C   -0.708095
     2  H    0.297751
     3  H    0.297829
     4  H    0.281697
     5  C   -0.544815
     6  H    0.198067
     7  C   -0.352546
     8  H    0.138060
     9  C    1.461456
    10  C   -1.525563
    11  H    0.456158
 Sum of Mulliken charges =  -0.00000

 Dipole moment (field-independent basis, Debye):
    X=              1.2182    Y=             -0.1900    Z=             -0.0001  Tot=              1.2330
 Quadrupole moment (field-independent basis, Debye-Ang):
   XX=            -25.4315   YY=            -29.9306   ZZ=            -33.6424
   XY=              0.9148   XZ=              0.0005   YZ=              0.0001

 =-193.6586234\CCSD(T)=-193.7006371\RMSD=3.764e-09\PG=C01 [X(C5H6)]\\@
 Normal termination of Gaussian 16 at Sat Sep 26 02:11:01 2020.
