   * xtb version 6.2.2 (9d81278992624c895f80dd42a50cac0aa55982e2) compiled by '@Darwin' on 04/03/2020
          program call               : xtb --input C5_9_S_0.input C5_9_S_0.xyz --ohess --molden --namespace C5_9_S_0 output.out
          number of atoms            :                     5
          number of electrons        :                    20
          charge                     :                     0
          spin                       :                   0.0

   ID    Z sym.   atoms
    1    6 C      1-5

          :  Hamiltonian                  GFN2-xTB          :
 * total energy  :   -10.1087896 Eh     change       -0.1090957E-08 Eh
 * total energy  :   -10.1274076 Eh     change       -0.1861799E-01 Eh
 * total energy  :   -10.1607552 Eh     change       -0.3334756E-01 Eh
 * total energy  :   -10.1892159 Eh     change       -0.2846071E-01 Eh
 * total energy  :   -10.1940211 Eh     change       -0.4805217E-02 Eh
 * total energy  :   -10.1970391 Eh     change       -0.3017988E-02 Eh
 * total energy  :   -10.1971480 Eh     change       -0.1089043E-03 Eh
 * total energy  :   -10.1973278 Eh     change       -0.1798179E-03 Eh
 * total energy  :   -10.1973921 Eh     change       -0.6434127E-04 Eh
 * total energy  :   -10.1983176 Eh     change       -0.9254428E-03 Eh
 * total energy  :   -10.3283218 Eh     change       -0.3371936E-02 Eh
 * total energy  :   -10.3284546 Eh     change       -0.1328509E-03 Eh
 * total energy  :   -10.3286516 Eh     change       -0.1970035E-03 Eh
 * total energy  :   -10.3286910 Eh     change       -0.3936689E-04 Eh
 * total energy  :   -10.3287051 Eh     change       -0.1411988E-04 Eh
 * total energy  :   -10.3287197 Eh     change       -0.1459929E-04 Eh
 * total energy  :   -10.3287281 Eh     change       -0.8377495E-05 Eh
 * total energy  :   -10.3287321 Eh     change       -0.4067033E-05 Eh
 * total energy  :   -10.3287346 Eh     change       -0.2423152E-05 Eh
   *** GEOMETRY OPTIMIZATION CONVERGED AFTER 37 ITERATIONS ***

 final structure:
================
5
 xtb: 6.2.2 (9d81278992624c895f80dd42a50cac0aa55982e2)
C        -1.25243678165510    0.28405492703760    0.06029606639139
C        -0.00013551526051    0.00000529402425   -0.00167501963412
C         1.25261829105903   -0.28359414686455   -0.06220477406642
C        -2.49509119943193    0.56475190143039    0.12568344802280
C         2.49504620528847   -0.56521897562772   -0.12209972071355

          :  Hamiltonian                  GFN2-xTB          :
         :: gradient norm              0.000599239228 Eh/a0 ::
         :: HOMO-LUMO gap              1.577725319205 eV    ::
         :: SCC energy               -10.598815727578 Eh    ::
         :: -> dispersion             -0.002738246563 Eh    ::
         :: repulsion energy           0.270082512978 Eh    ::

    * Orbital Energies and Occupations

         #    Occupation            Energy/Eh            Energy/eV
      -------------------------------------------------------------
         1        2.0000           -0.6928695             -18.8539
         2        2.0000           -0.6801875             -18.5088
         3        2.0000           -0.6590164             -17.9327
         4        2.0000           -0.6136625             -16.6986
         5        2.0000           -0.5388585             -14.6631
         6        2.0000           -0.5388584             -14.6631
         7        2.0000           -0.4709022             -12.8139
         8        2.0000           -0.4709019             -12.8139
         9        2.0000           -0.4636706             -12.6171
        10        2.0000           -0.4471228             -12.1668 (HOMO)
        11                         -0.3891426             -10.5891 (LUMO)
        12                         -0.3891424             -10.5891
        13                         -0.2441936              -6.6448
        14                         -0.2441933              -6.6448
        15                         -0.1168111              -3.1786
        16                         -0.1168092              -3.1785
        17                          0.0892733               2.4293
        18                          0.4583965              12.4736
        19                          0.9479235              25.7943
        20                          1.4161321              38.5349
      -------------------------------------------------------------
                  HL-Gap            0.0579803 Eh            1.5777 eV

     #   Z        covCN         q      C6AA      Î±(0)
     1   6 C      1.963     0.048    29.858     8.824
     2   6 C      1.964     0.112    28.309     8.592
     3   6 C      1.963     0.048    29.858     8.824
     4   6 C      0.982    -0.103    39.218    10.519
     5   6 C      0.982    -0.104    39.221    10.520

Wiberg/Mayer (AO) data.
largest (>0.10) Wiberg bond orders for each atom
          total WBO             WBO to atom ...

molecular dipole:
                 x           y           z       tot (Debye)
 q only:       -0.000       0.000      -0.001
   full:       -0.001       0.000      -0.003       0.008

   temp. (K)  partition function   enthalpy   heat capacity  entropy
                                   cal/mol     cal/K/mol   cal/K/mol   J/K/mol
  10.00  VIB   1.00                    0.000      0.000     -0.068
         ROT   40.7                   19.873      1.987      9.351
         INT   40.7                   19.873      1.988      9.283
         TR   0.277E+25               49.681      4.968     21.322
         TOT                          69.5544     6.9558    30.6050   128.0512

       T/K    H(0)-H(T)+PV         H(T)/Eh          T*S/Eh         G(T)/Eh
   ------------------------------------------------------------------------
    298.15    0.639192E-02    0.249215E-01    0.316874E-01   -0.676585E-02
    120.00    0.189811E-02    0.204277E-01    0.100759E-01    0.103518E-01
    100.00    0.148897E-02    0.200186E-01    0.802645E-02    0.119922E-01
     80.00    0.110953E-02    0.196392E-01    0.608499E-02    0.135542E-01
     60.00    0.766584E-03    0.192962E-01    0.426981E-02    0.150264E-01
     40.00    0.469200E-03    0.189988E-01    0.260668E-02    0.163921E-01
     20.00    0.222321E-03    0.187519E-01    0.113234E-02    0.176196E-01
     10.00    0.110842E-03    0.186405E-01    0.487721E-03    0.181527E-01 (used)
   ------------------------------------------------------------------------

         :::::::::::::::::::::::::::::::::::::::::::::::::::::
         ::                  THERMODYNAMIC                  ::
         :::::::::::::::::::::::::::::::::::::::::::::::::::::
         :: total free energy         -10.310581819332 Eh   ::
         ::.................................................::
         :: total energy              -10.328734567951 Eh   ::
         :: zero point energy           0.018529627780 Eh   ::
         :: G(RRHO) w/o ZPVE           -0.000376879161 Eh   ::
         :: G(RRHO) contrib.            0.018152748619 Eh   ::
         :::::::::::::::::::::::::::::::::::::::::::::::::::::

           -------------------------------------------------
          | TOTAL ENERGY              -10.328734567951 Eh   |
          | TOTAL ENTHALPY            -10.310094098218 Eh   |
          | TOTAL FREE ENERGY         -10.310581819332 Eh   |
          | GRADIENT NORM               0.000591669384 Eh/Î± |
          | HOMO-LUMO GAP               1.577723648258 eV   |
           -------------------------------------------------

 * finished run on 2020/05/12 at 11:44:35.360
