   * xtb version 6.2.2 (9d81278992624c895f80dd42a50cac0aa55982e2) compiled by '@Darwin' on 04/03/2020
          program call               : xtb --input H2C1N2_4_S_0.input H2C1N2_4_S_0.xyz --ohess --molden --namespace H2C1N2_4_S_0 output.out
          number of atoms            :                     5
          number of electrons        :                    16
          charge                     :                     0
          spin                       :                   0.0

   ID    Z sym.   atoms
    1    7 N      1, 3
    2    6 C      2
    3    1 H      4, 5

          :  Hamiltonian                  GFN2-xTB          :
 * total energy  :    -8.7571646 Eh     change       -0.2239986E-11 Eh
 * total energy  :    -8.8177778 Eh     change       -0.6061318E-01 Eh
 * total energy  :    -8.8564315 Eh     change       -0.3865372E-01 Eh
 * total energy  :    -8.8751822 Eh     change       -0.1875071E-01 Eh
 * total energy  :    -8.8780093 Eh     change       -0.2827059E-02 Eh
 * total energy  :    -8.8905527 Eh     change       -0.1254342E-01 Eh
 * total energy  :    -8.8969854 Eh     change       -0.6432682E-02 Eh
 * total energy  :    -8.8994808 Eh     change       -0.2495424E-02 Eh
 * total energy  :    -8.8975940 Eh     change        0.1886819E-02 Eh
 * total energy  :    -8.9013629 Eh     change       -0.3768983E-02 Eh
 * total energy  :    -8.9015322 Eh     change       -0.1692162E-03 Eh
 * total energy  :    -8.9018777 Eh     change       -0.3455320E-03 Eh
 * total energy  :    -8.9019738 Eh     change       -0.9610228E-04 Eh
 * total energy  :    -8.9020521 Eh     change       -0.7826292E-04 Eh
 * total energy  :    -8.9020809 Eh     change       -0.2882442E-04 Eh
 * total energy  :    -8.9020868 Eh     change       -0.5892881E-05 Eh
 * total energy  :    -8.9020890 Eh     change       -0.2210104E-05 Eh
 * total energy  :    -8.9020908 Eh     change       -0.1829958E-05 Eh
   *** GEOMETRY OPTIMIZATION CONVERGED AFTER 18 ITERATIONS ***

 final structure:
================
5
 xtb: 6.2.2 (9d81278992624c895f80dd42a50cac0aa55982e2)
N         0.06729356563614   -0.02550555415466    0.12088239685466
C        -1.03757811600704   -0.42663904892809    0.08452886301539
N         1.27799671864754    0.04443445990962    0.14633321482562
H        -1.98673150310600   -0.21507201374253   -0.32016135707286
H         1.67901933482935    0.62278215691565    0.87362488237720

          :  Hamiltonian                  GFN2-xTB          :
         :: gradient norm              0.000836452855 Eh/a0 ::
         :: HOMO-LUMO gap              4.379545504846 eV    ::
         :: SCC energy                -9.059598254585 Eh    ::
         :: -> dispersion             -0.001430116359 Eh    ::
         :: repulsion energy           0.157507518160 Eh    ::

    * Orbital Energies and Occupations

         #    Occupation            Energy/Eh            Energy/eV
      -------------------------------------------------------------
         1        2.0000           -0.6843975             -18.6234
         2        2.0000           -0.6361409             -17.3103
         3        2.0000           -0.5614842             -15.2788
         4        2.0000           -0.5479741             -14.9111
         5        2.0000           -0.5339239             -14.5288
         6        2.0000           -0.5019518             -13.6588
         7        2.0000           -0.3877177             -10.5503
         8        2.0000           -0.3702308             -10.0745 (HOMO)
         9                         -0.2092855              -5.6949 (LUMO)
        10                         -0.2071124              -5.6358
        11                          0.0772083               2.1009
        12                          0.1951715               5.3109
        13                          0.3974477              10.8151
        14                          1.1078485              30.1461
      -------------------------------------------------------------
Molecule has no symmetry elements
It seems to be the C1 point group
                  HL-Gap            0.1609453 Eh            4.3795 eV

     #   Z        covCN         q      C6AA      Î±(0)
     1   7 N      1.891     0.163    19.105     6.480
     2   6 C      1.849    -0.119    34.464     9.483
     3   7 N      1.851    -0.284    28.213     7.872
     4   1 H      0.928     0.090     1.881     2.145
     5   1 H      0.860     0.150     1.403     1.855

Wiberg/Mayer (AO) data.
largest (>0.10) Wiberg bond orders for each atom
          total WBO             WBO to atom ...

molecular dipole:
                 x           y           z       tot (Debye)
 q only:       -0.294       0.204       0.133
   full:       -0.499       0.457       0.250       1.834

 projected vibrational frequencies (cm-1)
eigval :       -0.00    -0.00    -0.00    -0.00     0.00     0.00
eigval :      410.51   473.19   600.14   670.06  1131.72  1373.80
eigval :     2344.17  3324.05  3363.04

   temp. (K)  partition function   enthalpy   heat capacity  entropy
                                   cal/mol     cal/K/mol   cal/K/mol   J/K/mol
  10.00  VIB   1.00                    0.000      0.000     -0.001
         ROT   21.9                   29.809      2.981      9.118
         INT   21.9                   29.809      2.981      9.117
         TR   0.162E+25               49.681      4.968     20.259
         TOT                          79.4904     7.9490    29.3763   122.9105

       T/K    H(0)-H(T)+PV         H(T)/Eh          T*S/Eh         G(T)/Eh
   ------------------------------------------------------------------------
    298.15    0.463642E-02    0.358261E-01    0.279748E-01    0.785126E-02
    120.00    0.154432E-02    0.327340E-01    0.942278E-02    0.233112E-01
    100.00    0.127494E-02    0.324646E-01    0.760697E-02    0.248576E-01
     80.00    0.101508E-02    0.322047E-01    0.585381E-02    0.263509E-01
     60.00    0.760183E-03    0.319498E-01    0.417048E-02    0.277794E-01
     40.00    0.506705E-03    0.316964E-01    0.257483E-02    0.291215E-01
     20.00    0.253352E-03    0.314430E-01    0.111185E-02    0.303312E-01
     10.00    0.126676E-03    0.313163E-01    0.468141E-03    0.308482E-01 (used)
   ------------------------------------------------------------------------

         :::::::::::::::::::::::::::::::::::::::::::::::::::::
         ::                  THERMODYNAMIC                  ::
         :::::::::::::::::::::::::::::::::::::::::::::::::::::
         :: total free energy          -8.871242622347 Eh   ::
         ::.................................................::
         :: total energy               -8.902090818429 Eh   ::
         :: zero point energy           0.031189661338 Eh   ::
         :: G(RRHO) w/o ZPVE           -0.000341465256 Eh   ::
         :: G(RRHO) contrib.            0.030848196082 Eh   ::
         :::::::::::::::::::::::::::::::::::::::::::::::::::::

           -------------------------------------------------
          | TOTAL ENERGY               -8.902090818429 Eh   |
          | TOTAL ENTHALPY             -8.870774481075 Eh   |
          | TOTAL FREE ENERGY          -8.871242622347 Eh   |
          | GRADIENT NORM               0.000836688913 Eh/Î± |
          | HOMO-LUMO GAP               4.379544272641 eV   |
           -------------------------------------------------

 * finished run on 2020/05/12 at 11:45:21.402
