   * xtb version 6.2.2 (9d81278992624c895f80dd42a50cac0aa55982e2) compiled by '@Darwin' on 04/03/2020
          program call               : xtb --input C2N1_1_S_1.input C2N1_1_S_1.xyz --ohess --molden --namespace C2N1_1_S_1 output.out
          number of atoms            :                     3
          number of electrons        :                    13
          charge                     :                     0
          spin                       :                   0.5

   ID    Z sym.   atoms
    1    7 N      1
    2    6 C      2, 3

          :  Hamiltonian                  GFN2-xTB          :
 * total energy  :    -6.8296495 Eh     change       -0.4849365E-10 Eh
 * total energy  :    -6.9052276 Eh     change       -0.7557816E-01 Eh
 * total energy  :    -6.9166366 Eh     change       -0.1140898E-01 Eh
 * total energy  :    -6.9286851 Eh     change       -0.1204848E-01 Eh
 * total energy  :    -6.9300355 Eh     change       -0.1350466E-02 Eh
 * total energy  :    -6.9317029 Eh     change       -0.1667359E-02 Eh
 * total energy  :    -6.9310588 Eh     change        0.6440587E-03 Eh
 * total energy  :    -6.9330462 Eh     change       -0.1987384E-02 Eh
 * total energy  :    -6.9333927 Eh     change       -0.3464611E-03 Eh
 * total energy  :    -6.9336244 Eh     change       -0.2316878E-03 Eh
 * total energy  :    -6.9337245 Eh     change       -0.1000802E-03 Eh
 * total energy  :    -6.9337458 Eh     change       -0.2135945E-04 Eh
 * total energy  :    -6.9337500 Eh     change       -0.4219169E-05 Eh
   *** GEOMETRY OPTIMIZATION CONVERGED AFTER 13 ITERATIONS ***

 final structure:
================
3
 xtb: 6.2.2 (9d81278992624c895f80dd42a50cac0aa55982e2)
N         0.00000990780837   -0.00292630109580    0.00000000000000
C         1.22670717140246    0.00529246895143   -0.00000000000000
C        -1.22671607921083   -0.00236516785563    0.00000000000000

          :  Hamiltonian                  GFN2-xTB          :
         :: gradient norm              0.000207152166 Eh/a0 ::
         :: HOMO-LUMO gap              0.000015118883 eV    ::
         :: SCC energy                -7.048807816377 Eh    ::
         :: -> dispersion             -0.000974507768 Eh    ::
         :: repulsion energy           0.115057779434 Eh    ::

    * Orbital Energies and Occupations

         #    Occupation            Energy/Eh            Energy/eV
      -------------------------------------------------------------
         1        2.0000           -0.7272668             -19.7899
         2        2.0000           -0.6932185             -18.8634
         3        2.0000           -0.5758360             -15.6693
         4        2.0000           -0.5758353             -15.6693
         5        2.0000           -0.5266274             -14.3303
         6        2.0000           -0.4720916             -12.8463
         7        0.5001           -0.3981302             -10.8337 (HOMO)
         8        0.4999           -0.3981297             -10.8337 (LUMO)
         9                         -0.2308429              -6.2816
        10                         -0.2308369              -6.2814
        11                          0.1994576               5.4275
        12                          0.9471691              25.7738
      -------------------------------------------------------------
                  HL-Gap            0.0000006 Eh            0.0000 eV

     #   Z        covCN         q      C6AA      Î±(0)
     1   7 N      1.821     0.168    19.024     6.463
     2   6 C      0.918    -0.084    38.106    10.335
     3   6 C      0.918    -0.084    38.106    10.335

Wiberg/Mayer (AO) data.
largest (>0.10) Wiberg bond orders for each atom
          total WBO             WBO to atom ...

molecular dipole:
                 x           y           z       tot (Debye)
 q only:        0.000      -0.001       0.000
   full:        0.000      -0.003       0.000       0.008

   temp. (K)  partition function   enthalpy   heat capacity  entropy
                                   cal/mol     cal/K/mol   cal/K/mol   J/K/mol
  10.00  VIB   1.00                    0.000      0.000     -0.005
         ROT   7.45                   19.873      1.987      5.979
         INT   7.45                   19.873      1.987      5.973
         TR   0.139E+25               49.681      4.968     19.961
         TOT                          69.5541     6.9554    25.9339   108.5076

       T/K    H(0)-H(T)+PV         H(T)/Eh          T*S/Eh         G(T)/Eh
   ------------------------------------------------------------------------
    298.15    0.431950E-02    0.126095E-01    0.252748E-01   -0.126653E-01
    120.00    0.146217E-02    0.975221E-02    0.844181E-02    0.131040E-02
    100.00    0.118104E-02    0.947108E-02    0.677883E-02    0.269224E-02
     80.00    0.916947E-03    0.920698E-02    0.518769E-02    0.401930E-02
     60.00    0.672205E-03    0.896224E-02    0.367994E-02    0.528230E-02
     40.00    0.443775E-03    0.873381E-02    0.226835E-02    0.646546E-02
     20.00    0.221683E-03    0.851172E-02    0.980257E-03    0.753146E-02
     10.00    0.110842E-03    0.840088E-02    0.413284E-03    0.798760E-02 (used)
   ------------------------------------------------------------------------

         :::::::::::::::::::::::::::::::::::::::::::::::::::::
         ::                  THERMODYNAMIC                  ::
         :::::::::::::::::::::::::::::::::::::::::::::::::::::
         :: total free energy          -6.925762445284 Eh   ::
         ::.................................................::
         :: total energy               -6.933750040407 Eh   ::
         :: zero point energy           0.008290037135 Eh   ::
         :: G(RRHO) w/o ZPVE           -0.000302442012 Eh   ::
         :: G(RRHO) contrib.            0.007987595122 Eh   ::
         :::::::::::::::::::::::::::::::::::::::::::::::::::::

           -------------------------------------------------
          | TOTAL ENERGY               -6.933750040407 Eh   |
          | TOTAL ENTHALPY             -6.925349161758 Eh   |
          | TOTAL FREE ENERGY          -6.925762445284 Eh   |
          | GRADIENT NORM               0.000207138659 Eh/Î± |
          | HOMO-LUMO GAP               0.000015225703 eV   |
           -------------------------------------------------

 * finished run on 2020/05/12 at 11:43:53.903
