   * xtb version 6.2.2 (9d81278992624c895f80dd42a50cac0aa55982e2) compiled by '@Darwin' on 04/03/2020
          program call               : xtb --input H1C3N1_9_S_0.input H1C3N1_9_S_0.xyz --ohess --molden --namespace H1C3N1_9_S_0 output.out
          number of atoms            :                     5
          number of electrons        :                    18
          charge                     :                     0
          spin                       :                   0.0

   ID    Z sym.   atoms
    1    6 C      1, 3, 4
    2    7 N      2
    3    1 H      5

          :  Hamiltonian                  GFN2-xTB          :
 * total energy  :    -9.4055920 Eh     change       -0.1769248E-08 Eh
 * total energy  :    -9.5336510 Eh     change       -0.1280590E+00 Eh
 * total energy  :    -9.5624051 Eh     change       -0.2875411E-01 Eh
 * total energy  :    -9.6188230 Eh     change       -0.5641786E-01 Eh
 * total energy  :    -9.6178112 Eh     change        0.1011744E-02 Eh
 * total energy  :    -9.6304177 Eh     change       -0.1260644E-01 Eh
 * total energy  :    -9.6324077 Eh     change       -0.1990039E-02 Eh
 * total energy  :    -9.6343523 Eh     change       -0.1944645E-02 Eh
 * total energy  :    -9.6349868 Eh     change       -0.6344727E-03 Eh
 * total energy  :    -9.6359983 Eh     change       -0.1011468E-02 Eh
 * total energy  :    -9.6372334 Eh     change        0.2156438E-03 Eh
 * total energy  :    -9.6382069 Eh     change       -0.9735793E-03 Eh
 * total energy  :    -9.6384285 Eh     change       -0.2215723E-03 Eh
 * total energy  :    -9.6387030 Eh     change       -0.2744745E-03 Eh
 * total energy  :    -9.6388506 Eh     change       -0.1475841E-03 Eh
 * total energy  :    -9.6388786 Eh     change       -0.2806450E-04 Eh
 * total energy  :    -9.6388837 Eh     change       -0.5096280E-05 Eh
 * total energy  :    -9.6388838 Eh     change       -0.9449583E-07 Eh
 * total energy  :    -9.6388848 Eh     change       -0.9332231E-06 Eh
   *** GEOMETRY OPTIMIZATION CONVERGED AFTER 20 ITERATIONS ***

 final structure:
================
5
 xtb: 6.2.2 (9d81278992624c895f80dd42a50cac0aa55982e2)
C        -1.19343456762153    0.26912200479719    0.40411444212478
N        -0.07794839801290    0.01499392904173    0.18552628708739
C         1.13557705510425   -0.25133155925570   -0.05115402900285
C         2.33261786449818   -0.51619002621818   -0.28254197522074
H        -2.19681195396799    0.48340665163497    0.60707427501143

          :  Hamiltonian                  GFN2-xTB          :
         :: gradient norm              0.000709779623 Eh/a0 ::
         :: HOMO-LUMO gap              2.747641665795 eV    ::
         :: SCC energy                -9.877939507698 Eh    ::
         :: -> dispersion             -0.002075799681 Eh    ::
         :: repulsion energy           0.239055274892 Eh    ::

    * Orbital Energies and Occupations

         #    Occupation            Energy/Eh            Energy/eV
      -------------------------------------------------------------
         1        2.0000           -0.7021314             -19.1060
         2        2.0000           -0.6431886             -17.5021
         3        2.0000           -0.5964028             -16.2289
         4        2.0000           -0.5711839             -15.5427
         5        2.0000           -0.5631218             -15.3233
         6        2.0000           -0.5631168             -15.3232
         7        2.0000           -0.3993699             -10.8674
         8        2.0000           -0.3993671             -10.8673
         9        2.0000           -0.3808112             -10.3624 (HOMO)
        10                         -0.2798374              -7.6148 (LUMO)
        11                         -0.2798241              -7.6144
        12                         -0.0986514              -2.6844
        13                         -0.0986463              -2.6843
        14                          0.0062308               0.1695
        15                          0.2811178               7.6496
        16                          0.9409059              25.6034
        17                          1.4449639              39.3195
      -------------------------------------------------------------
                  HL-Gap            0.1009738 Eh            2.7476 eV

     #   Z        covCN         q      C6AA      Î±(0)
     1   6 C      1.850    -0.020    31.688     9.093
     2   7 N      1.822     0.123    19.764     6.587
     3   6 C      1.902    -0.007    31.305     9.036
     4   6 C      0.982    -0.218    43.313    11.054
     5   1 H      0.928     0.123     1.592     1.973

Wiberg/Mayer (AO) data.
largest (>0.10) Wiberg bond orders for each atom
          total WBO             WBO to atom ...

molecular dipole:
                 x           y           z       tot (Debye)
 q only:       -1.457       0.321       0.285
   full:       -2.229       0.491       0.436       5.907

 projected vibrational frequencies (cm-1)
eigval :       -0.00    -0.00    -0.00     0.00     0.00     0.00
eigval :      154.15   198.18   299.95   498.10   539.69  1018.52
eigval :     2012.50  2246.16  3414.17

   temp. (K)  partition function   enthalpy   heat capacity  entropy
                                   cal/mol     cal/K/mol   cal/K/mol   J/K/mol
  10.00  VIB   1.00                    0.000      0.000     -0.017
         ROT  0.911                   29.809      2.981      2.796
         INT  0.911                   29.809      2.981      2.780
         TR   0.217E+25               49.681      4.968     20.838
         TOT                          79.4904     7.9490    23.6174    98.8154

       T/K    H(0)-H(T)+PV         H(T)/Eh          T*S/Eh         G(T)/Eh
   ------------------------------------------------------------------------
    298.15    0.585378E-02    0.295044E-01    0.276130E-01    0.189136E-02
    120.00    0.179209E-02    0.254427E-01    0.868371E-02    0.167590E-01
    100.00    0.142920E-02    0.250798E-01    0.690618E-02    0.181736E-01
     80.00    0.109324E-02    0.247439E-01    0.522565E-02    0.195182E-01
     60.00    0.786837E-03    0.244375E-01    0.365540E-02    0.207820E-01
     40.00    0.510213E-03    0.241608E-01    0.221317E-02    0.219477E-01
     20.00    0.253363E-03    0.239040E-01    0.928655E-03    0.229753E-01
     10.00    0.126676E-03    0.237773E-01    0.376368E-03    0.234009E-01 (used)
   ------------------------------------------------------------------------

         :::::::::::::::::::::::::::::::::::::::::::::::::::::
         ::                  THERMODYNAMIC                  ::
         :::::::::::::::::::::::::::::::::::::::::::::::::::::
         :: total free energy          -9.615483839897 Eh   ::
         ::.................................................::
         :: total energy               -9.638884761560 Eh   ::
         :: zero point energy           0.023650613594 Eh   ::
         :: G(RRHO) w/o ZPVE           -0.000249691931 Eh   ::
         :: G(RRHO) contrib.            0.023400921663 Eh   ::
         :::::::::::::::::::::::::::::::::::::::::::::::::::::

           -------------------------------------------------
          | TOTAL ENERGY               -9.638884761560 Eh   |
          | TOTAL ENTHALPY             -9.615107471950 Eh   |
          | TOTAL FREE ENERGY          -9.615483839897 Eh   |
          | GRADIENT NORM               0.000709680442 Eh/Î± |
          | HOMO-LUMO GAP               2.747636524543 eV   |
           -------------------------------------------------

 * finished run on 2020/05/12 at 11:44:53.789
