   * xtb version 6.2.2 (9d81278992624c895f80dd42a50cac0aa55982e2) compiled by '@Darwin' on 04/03/2020
          program call               : xtb --input C4N1_22_S_1.input C4N1_22_S_1.xyz --ohess --molden --namespace C4N1_22_S_1 output.out
          number of atoms            :                     5
          number of electrons        :                    21
          charge                     :                     0
          spin                       :                   0.5

   ID    Z sym.   atoms
    1    6 C      1-4
    2    7 N      5

          :  Hamiltonian                  GFN2-xTB          :
 * total energy  :   -10.9116677 Eh     change        0.8024301E-09 Eh
 * total energy  :   -11.0495603 Eh     change       -0.1378926E+00 Eh
 * total energy  :   -11.0525416 Eh     change       -0.2981281E-02 Eh
 * total energy  :   -11.1300940 Eh     change       -0.7755242E-01 Eh
 * total energy  :   -11.1388714 Eh     change       -0.8777353E-02 Eh
 * total energy  :   -11.1463545 Eh     change       -0.7483163E-02 Eh
 * total energy  :   -11.1469305 Eh     change       -0.5759336E-03 Eh
 * total energy  :   -11.1499325 Eh     change       -0.3002094E-02 Eh
 * total energy  :   -11.1417315 Eh     change        0.8201022E-02 Eh
 * total energy  :   -11.1501557 Eh     change       -0.8424177E-02 Eh
 * total energy  :   -11.1506426 Eh     change       -0.4869066E-03 Eh
 * total energy  :   -11.1512477 Eh     change       -0.6051099E-03 Eh
 * total energy  :   -11.1513306 Eh     change       -0.8290951E-04 Eh
 * total energy  :   -11.1513810 Eh     change       -0.5042034E-04 Eh
 * total energy  :   -11.1513940 Eh     change       -0.1292259E-04 Eh
 * total energy  :   -11.1514026 Eh     change       -0.8621106E-05 Eh
 * total energy  :   -11.1514071 Eh     change       -0.4536673E-05 Eh
 * total energy  :   -11.1514103 Eh     change       -0.3131349E-05 Eh
   *** GEOMETRY OPTIMIZATION CONVERGED AFTER 18 ITERATIONS ***

 final structure:
================
5
 xtb: 6.2.2 (9d81278992624c895f80dd42a50cac0aa55982e2)
C        -1.42703631967035   -0.69471762900237    0.35468698058249
C        -0.27951192755943   -0.05884911331759    0.04936059111743
C         1.07637738487639    0.02493928288041   -0.11233765613657
C        -1.58657019887354    0.63283093073551   -0.04124824441044
N         2.21674106122693    0.09579652870403   -0.25046167115291

          :  Hamiltonian                  GFN2-xTB          :
         :: gradient norm              0.000943051191 Eh/a0 ::
         :: HOMO-LUMO gap              1.739409907691 eV    ::
         :: SCC energy               -11.383442800612 Eh    ::
         :: -> dispersion             -0.002690411541 Eh    ::
         :: repulsion energy           0.232032615444 Eh    ::

    * Orbital Energies and Occupations

         #    Occupation            Energy/Eh            Energy/eV
      -------------------------------------------------------------
         1        2.0000           -0.7291378             -19.8408
         2        2.0000           -0.6932151             -18.8633
         3        2.0000           -0.6564797             -17.8637
         4        2.0000           -0.5968554             -16.2413
         5        2.0000           -0.5622947             -15.3008
         6        2.0000           -0.5380355             -14.6407
         7        2.0000           -0.5259329             -14.3114
         8        2.0000           -0.5133147             -13.9680
         9        2.0000           -0.4708118             -12.8114
        10        2.0000           -0.4424293             -12.0391
        11        1.0000           -0.4204355             -11.4406 (HOMO)
        12                         -0.3565133              -9.7012 (LUMO)
        13                         -0.2963140              -8.0631
        14                         -0.2580448              -7.0218
        15                         -0.1784444              -4.8557
        16                         -0.0273170              -0.7433
        17                          0.0604017               1.6436
        18                          0.3156701               8.5898
        19                          0.5754481              15.6587
        20                          1.1971985              32.5774
      -------------------------------------------------------------
                  HL-Gap            0.0639222 Eh            1.7394 eV

     #   Z        covCN         q      C6AA      Î±(0)
     1   6 C      1.961     0.008    30.853     8.970
     2   6 C      2.940     0.113    25.506     8.283
     3   6 C      1.891     0.128    27.972     8.542
     4   6 C      1.958    -0.089    33.508     9.348
     5   7 N      0.911    -0.161    24.486     7.156
Molecule has the following symmetry elements: (sigma)
It seems to be the Cs point group

Wiberg/Mayer (AO) data.
largest (>0.10) Wiberg bond orders for each atom
          total WBO             WBO to atom ...

molecular dipole:
                 x           y           z       tot (Debye)
 q only:       -0.231      -0.153       0.072
   full:       -0.236      -0.416       0.157       1.280

 projected vibrational frequencies (cm-1)
eigval :       -0.00    -0.00    -0.00     0.00     0.00     0.00
eigval :      189.46   201.56   499.01   546.12   705.93   939.70
eigval :     1204.73  1792.02  2302.13

   temp. (K)  partition function   enthalpy   heat capacity  entropy
                                   cal/mol     cal/K/mol   cal/K/mol   J/K/mol
  10.00  VIB   1.00                    0.000      0.000     -0.011
         ROT   233.                   29.809      2.981     13.817
         INT   233.                   29.809      2.981     13.807
         TR   0.290E+25               49.681      4.968     21.419
         TOT                          79.4904     7.9490    35.2261   147.3862

       T/K    H(0)-H(T)+PV         H(T)/Eh          T*S/Eh         G(T)/Eh
   ------------------------------------------------------------------------
    298.15    0.550439E-02    0.245969E-01    0.324246E-01   -0.782768E-02
    120.00    0.171942E-02    0.208120E-01    0.107933E-01    0.100186E-01
    100.00    0.138356E-02    0.204761E-01    0.868867E-02    0.117874E-01
     80.00    0.106856E-02    0.201611E-01    0.667019E-02    0.134909E-01
     60.00    0.776728E-03    0.198693E-01    0.475124E-02    0.151180E-01
     40.00    0.508305E-03    0.196009E-01    0.295028E-02    0.166506E-01
     20.00    0.253354E-03    0.193459E-01    0.129848E-02    0.180474E-01
     10.00    0.126676E-03    0.192192E-01    0.561364E-03    0.186579E-01 (used)
   ------------------------------------------------------------------------

         :::::::::::::::::::::::::::::::::::::::::::::::::::::
         ::                  THERMODYNAMIC                  ::
         :::::::::::::::::::::::::::::::::::::::::::::::::::::
         :: total free energy         -11.132752389775 Eh   ::
         ::.................................................::
         :: total energy              -11.151410259109 Eh   ::
         :: zero point energy           0.019092557596 Eh   ::
         :: G(RRHO) w/o ZPVE           -0.000434688261 Eh   ::
         :: G(RRHO) contrib.            0.018657869335 Eh   ::
         :::::::::::::::::::::::::::::::::::::::::::::::::::::

           -------------------------------------------------
          | TOTAL ENERGY              -11.151410259109 Eh   |
          | TOTAL ENTHALPY            -11.132191025497 Eh   |
          | TOTAL FREE ENERGY         -11.132752389775 Eh   |
          | GRADIENT NORM               0.000943319877 Eh/Î± |
          | HOMO-LUMO GAP               1.739410982214 eV   |
           -------------------------------------------------

 * finished run on 2020/05/12 at 11:44:07.705
