   * xtb version 6.2.2 (9d81278992624c895f80dd42a50cac0aa55982e2) compiled by '@Darwin' on 04/03/2020
          program call               : xtb --input H2C1O2_2_S_0.input H2C1O2_2_S_0.xyz --ohess --molden --namespace H2C1O2_2_S_0 output.out
          number of atoms            :                     5
          number of electrons        :                    18
          charge                     :                     0
          spin                       :                   0.0

   ID    Z sym.   atoms
    1    6 C      1
    2    8 O      2, 3
    3    1 H      4, 5

          :  Hamiltonian                  GFN2-xTB          :
 * total energy  :   -11.1909395 Eh     change       -0.2258993E-09 Eh
 * total energy  :   -11.1966825 Eh     change       -0.5742997E-02 Eh
 * total energy  :   -11.1976568 Eh     change       -0.9742098E-03 Eh
 * total energy  :   -11.1977420 Eh     change       -0.8522122E-04 Eh
 * total energy  :   -11.1977565 Eh     change       -0.1449150E-04 Eh
 * total energy  :   -11.1977566 Eh     change       -0.1437368E-06 Eh
   *** GEOMETRY OPTIMIZATION CONVERGED AFTER 6 ITERATIONS ***

 final structure:
================
5
 xtb: 6.2.2 (9d81278992624c895f80dd42a50cac0aa55982e2)
C         0.09959301378097    0.08396084286948   -0.40592358285181
O         0.93473948714103   -0.34205001007856    0.55246342812939
O        -1.10996920102132    0.19432372448482    0.16173813907478
H         1.82260423722022   -0.43630860393452    0.18691737040278
H        -1.74696853712090    0.50007304665878   -0.49519535475513

          :  Hamiltonian                  GFN2-xTB          :
         :: gradient norm              0.000124359461 Eh/a0 ::
         :: HOMO-LUMO gap              3.169775034761 eV    ::
         :: SCC energy               -11.255316020069 Eh    ::
         :: -> dispersion             -0.001123653928 Eh    ::
         :: repulsion energy           0.057559458434 Eh    ::

    * Orbital Energies and Occupations

         #    Occupation            Energy/Eh            Energy/eV
      -------------------------------------------------------------
         1        2.0000           -0.7254152             -19.7396
         2        2.0000           -0.7119122             -19.3721
         3        2.0000           -0.6449433             -17.5498
         4        2.0000           -0.5792046             -15.7610
         5        2.0000           -0.5583450             -15.1933
         6        2.0000           -0.5450544             -14.8317
         7        2.0000           -0.5439003             -14.8003
         8        2.0000           -0.4771346             -12.9835
         9        2.0000           -0.3661599              -9.9637 (HOMO)
        10                         -0.2496728              -6.7939 (LUMO)
        11                          0.0657488               1.7891
        12                          0.1514886               4.1222
        13                          0.2016145               5.4862
        14                          0.3074887               8.3672
      -------------------------------------------------------------
                  HL-Gap            0.1164871 Eh            3.1698 eV

     #   Z        covCN         q      C6AA      Î±(0)
     1   6 C      1.708     0.021    30.850     8.993
     2   8 O      1.660    -0.317    19.314     5.933
     3   8 O      1.660    -0.317    19.314     5.933
     4   1 H      0.805     0.307     0.701     1.315
     5   1 H      0.805     0.307     0.701     1.315

Wiberg/Mayer (AO) data.
largest (>0.10) Wiberg bond orders for each atom
          total WBO             WBO to atom ...

molecular dipole:
                 x           y           z       tot (Debye)
 q only:        0.153       0.129      -0.623
   full:        0.108       0.091      -0.441       1.177

 projected vibrational frequencies (cm-1)
eigval :       -0.00    -0.00     0.00     0.00     0.00     0.00
eigval :      538.71   600.56   665.43  1082.71  1117.36  1240.21
eigval :     1399.82  3521.98  3525.25

   temp. (K)  partition function   enthalpy   heat capacity  entropy
                                   cal/mol     cal/K/mol   cal/K/mol   J/K/mol
  10.00  VIB   1.00                    0.000      0.000     -0.000
         ROT   26.5                   29.809      2.981      9.493
         INT   26.5                   29.809      2.981      9.493
         TR   0.186E+25               49.681      4.968     20.529
         TOT                          79.4904     7.9490    30.0220   125.6119

       T/K    H(0)-H(T)+PV         H(T)/Eh          T*S/Eh         G(T)/Eh
   ------------------------------------------------------------------------
    298.15    0.433254E-02    0.355253E-01    0.278170E-01    0.770825E-02
    120.00    0.152707E-02    0.327198E-01    0.952539E-02    0.231944E-01
    100.00    0.126851E-02    0.324612E-01    0.770227E-02    0.247590E-01
     80.00    0.101364E-02    0.322064E-01    0.593442E-02    0.262719E-01
     60.00    0.760064E-03    0.319528E-01    0.423204E-02    0.277208E-01
     40.00    0.506704E-03    0.316994E-01    0.261596E-02    0.290835E-01
     20.00    0.253352E-03    0.314461E-01    0.113242E-02    0.303137E-01
     10.00    0.126676E-03    0.313194E-01    0.478430E-03    0.308410E-01 (used)
   ------------------------------------------------------------------------

         :::::::::::::::::::::::::::::::::::::::::::::::::::::
         ::                  THERMODYNAMIC                  ::
         :::::::::::::::::::::::::::::::::::::::::::::::::::::
         :: total free energy         -11.166915636006 Eh   ::
         ::.................................................::
         :: total energy              -11.197756609992 Eh   ::
         :: zero point energy           0.031192728424 Eh   ::
         :: G(RRHO) w/o ZPVE           -0.000351754438 Eh   ::
         :: G(RRHO) contrib.            0.030840973986 Eh   ::
         :::::::::::::::::::::::::::::::::::::::::::::::::::::

           -------------------------------------------------
          | TOTAL ENERGY              -11.197756609992 Eh   |
          | TOTAL ENTHALPY            -11.166437205552 Eh   |
          | TOTAL FREE ENERGY         -11.166915636006 Eh   |
          | GRADIENT NORM               0.000124353213 Eh/Î± |
          | HOMO-LUMO GAP               3.169775009839 eV   |
           -------------------------------------------------

 * finished run on 2020/05/12 at 11:43:52.546
