   * xtb version 6.2.2 (9d81278992624c895f80dd42a50cac0aa55982e2) compiled by '@Darwin' on 04/03/2020
          program call               : xtb --input H2C3_3_S_0.input H2C3_3_S_0.xyz --ohess --molden --namespace H2C3_3_S_0 output.out
          number of atoms            :                     5
          number of electrons        :                    14
          charge                     :                     0
          spin                       :                   0.0

   ID    Z sym.   atoms
    1    6 C      1-3
    2    1 H      4, 5

          :  Hamiltonian                  GFN2-xTB          :
 * total energy  :    -7.0705393 Eh     change       -0.6593837E-10 Eh
 * total energy  :    -7.1662835 Eh     change       -0.9574420E-01 Eh
 * total energy  :    -7.1904370 Eh     change       -0.2415355E-01 Eh
 * total energy  :    -7.2044998 Eh     change       -0.1406273E-01 Eh
 * total energy  :    -7.2148453 Eh     change       -0.1034552E-01 Eh
 * total energy  :    -7.2177430 Eh     change       -0.2897732E-02 Eh
 * total energy  :    -7.2174900 Eh     change        0.2530662E-03 Eh
 * total energy  :    -7.2182465 Eh     change       -0.7565126E-03 Eh
 * total energy  :    -7.2200622 Eh     change       -0.1815685E-02 Eh
 * total energy  :    -7.2212235 Eh     change       -0.1161363E-02 Eh
 * total energy  :    -7.2225935 Eh     change       -0.2511994E-04 Eh
 * total energy  :    -7.2226764 Eh     change       -0.8287366E-04 Eh
 * total energy  :    -7.2227235 Eh     change       -0.4711557E-04 Eh
 * total energy  :    -7.2227740 Eh     change       -0.5049119E-04 Eh
 * total energy  :    -7.2226892 Eh     change        0.8480548E-04 Eh
 * total energy  :    -7.2227936 Eh     change       -0.1044485E-03 Eh
 * total energy  :    -7.2227999 Eh     change       -0.6256558E-05 Eh
 * total energy  :    -7.2228036 Eh     change       -0.3714564E-05 Eh
 * total energy  :    -7.2228051 Eh     change       -0.1458998E-05 Eh
   *** GEOMETRY OPTIMIZATION CONVERGED AFTER 37 ITERATIONS ***

 final structure:
================
5
 xtb: 6.2.2 (9d81278992624c895f80dd42a50cac0aa55982e2)
C        -0.00507968387124    0.00824607035237   -0.10585690686434
C         1.14965916318297   -0.34106087772813   -0.50861900196558
C        -1.23982903282150   -0.21023812594338    0.18432101126986
H         2.10067523701853    0.10505468126840   -0.66628458716228
H        -2.00542568350876    0.43799725205074    0.54997548472233

          :  Hamiltonian                  GFN2-xTB          :
         :: gradient norm              0.000825619113 Eh/a0 ::
         :: HOMO-LUMO gap              0.429242854662 eV    ::
         :: SCC energy                -7.399342298332 Eh    ::
         :: -> dispersion             -0.001569290964 Eh    ::
         :: repulsion energy           0.176537369302 Eh    ::

    * Orbital Energies and Occupations

         #    Occupation            Energy/Eh            Energy/eV
      -------------------------------------------------------------
         1        2.0000           -0.6320289             -17.1984
         2        2.0000           -0.5973001             -16.2534
         3        2.0000           -0.5281199             -14.3709
         4        2.0000           -0.4814731             -13.1015
         5        2.0000           -0.4613157             -12.5530
         6        2.0000           -0.4609157             -12.5422
         7        1.9995           -0.3552527              -9.6669 (HOMO)
         8        0.0005           -0.3394783              -9.2377 (LUMO)
         9                         -0.1843436              -5.0162
        10                         -0.1304104              -3.5486
        11                          0.1299392               3.5358
        12                          0.2423030               6.5934
        13                          0.5857248              15.9384
        14                          1.0612343              28.8777
      -------------------------------------------------------------
                  HL-Gap            0.0157744 Eh            0.4292 eV

     #   Z        covCN         q      C6AA      Î±(0)
     1   6 C      1.962     0.016    30.670     8.943
     2   6 C      1.912    -0.080    33.301     9.320
     3   6 C      1.912    -0.089    33.546     9.354
     4   1 H      0.927     0.078     1.997     2.210
     5   1 H      0.927     0.075     2.027     2.226

Wiberg/Mayer (AO) data.
largest (>0.10) Wiberg bond orders for each atom
          total WBO             WBO to atom ...

molecular dipole:
                 x           y           z       tot (Debye)
 q only:        0.059       0.165       0.023
   full:        0.155       0.653       0.112       1.729

 projected vibrational frequencies (cm-1)
eigval :       -0.00    -0.00     0.00     0.00     0.00     0.00
eigval :      146.40   332.88   463.70   741.54   822.58  1334.67
eigval :     1807.10  3180.89  3240.94

   temp. (K)  partition function   enthalpy   heat capacity  entropy
                                   cal/mol     cal/K/mol   cal/K/mol   J/K/mol
  10.00  VIB   1.00                    0.000      0.000     -0.013
         ROT   11.6                   29.809      2.981      7.854
         INT   11.6                   29.809      2.981      7.841
         TR   0.139E+25               49.681      4.968     19.962
         TOT                          79.4904     7.9490    27.8029   116.3273

       T/K    H(0)-H(T)+PV         H(T)/Eh          T*S/Eh         G(T)/Eh
   ------------------------------------------------------------------------
    298.15    0.523976E-02    0.327388E-01    0.285028E-01    0.423600E-02
    120.00    0.169690E-02    0.291960E-01    0.935433E-02    0.198416E-01
    100.00    0.137468E-02    0.288738E-01    0.750201E-02    0.213717E-01
     80.00    0.106939E-02    0.285685E-01    0.572956E-02    0.228389E-01
     60.00    0.781151E-03    0.282802E-01    0.404880E-02    0.242314E-01
     40.00    0.510177E-03    0.280092E-01    0.247981E-02    0.255294E-01
     20.00    0.253370E-03    0.277524E-01    0.106202E-02    0.266904E-01
     10.00    0.126676E-03    0.276257E-01    0.443067E-03    0.271827E-01 (used)
   ------------------------------------------------------------------------

         :::::::::::::::::::::::::::::::::::::::::::::::::::::
         ::                  THERMODYNAMIC                  ::
         :::::::::::::::::::::::::::::::::::::::::::::::::::::
         :: total free energy          -7.195622399641 Eh   ::
         ::.................................................::
         :: total energy               -7.222805080213 Eh   ::
         :: zero point energy           0.027499071712 Eh   ::
         :: G(RRHO) w/o ZPVE           -0.000316391140 Eh   ::
         :: G(RRHO) contrib.            0.027182680572 Eh   ::
         :::::::::::::::::::::::::::::::::::::::::::::::::::::

           -------------------------------------------------
          | TOTAL ENERGY               -7.222805080213 Eh   |
          | TOTAL ENTHALPY             -7.195179332484 Eh   |
          | TOTAL FREE ENERGY          -7.195622399641 Eh   |
          | GRADIENT NORM               0.000825626526 Eh/Î± |
          | HOMO-LUMO GAP               0.429242816476 eV   |
           -------------------------------------------------

 * finished run on 2020/05/12 at 11:44:26.681
