   * xtb version 6.2.2 (9d81278992624c895f80dd42a50cac0aa55982e2) compiled by '@Darwin' on 04/03/2020
          program call               : xtb --input H2C1N2_6_S_2.input H2C1N2_6_S_2.xyz --ohess --molden --namespace H2C1N2_6_S_2 output.out
          number of atoms            :                     5
          number of electrons        :                    16
          charge                     :                     0
          spin                       :                   1.0

   ID    Z sym.   atoms
    1    6 C      1
    2    7 N      2, 3
    3    1 H      4, 5

          :  Hamiltonian                  GFN2-xTB          :
 * total energy  :    -8.6624816 Eh     change        0.1667004E-09 Eh
 * total energy  :    -8.6813918 Eh     change       -0.1891020E-01 Eh
 * total energy  :    -8.6880629 Eh     change       -0.6671014E-02 Eh
 * total energy  :    -8.6884438 Eh     change       -0.3809651E-03 Eh
 * total energy  :    -8.6884879 Eh     change       -0.4409487E-04 Eh
 * total energy  :    -8.6884956 Eh     change       -0.7721392E-05 Eh
 * total energy  :    -8.6884962 Eh     change       -0.5775199E-06 Eh
   *** GEOMETRY OPTIMIZATION CONVERGED AFTER 7 ITERATIONS ***

 final structure:
================
5
 xtb: 6.2.2 (9d81278992624c895f80dd42a50cac0aa55982e2)
C         0.00560510354199    0.04686654140686   -0.00145676745826
N        -1.11451582121210    0.75415389182786   -0.10441080178991
N         1.26155189703438    0.47528267515970    0.06624307728538
H        -0.13540620132442   -0.60379914317631    0.89861617277284
H        -0.01723497803984   -0.67250396521811   -0.85899168081005

          :  Hamiltonian                  GFN2-xTB          :
         :: gradient norm              0.000169588584 Eh/a0 ::
         :: HOMO-LUMO gap              0.633073290852 eV    ::
         :: SCC energy                -8.770706435189 Eh    ::
         :: -> dispersion             -0.001268676995 Eh    ::
         :: repulsion energy           0.082210191256 Eh    ::

    * Orbital Energies and Occupations

         #    Occupation            Energy/Eh            Energy/eV
      -------------------------------------------------------------
         1        2.0000           -0.6962047             -18.9447
         2        2.0000           -0.6440340             -17.5251
         3        2.0000           -0.5960148             -16.2184
         4        2.0000           -0.5781742             -15.7329
         5        2.0000           -0.4877036             -13.2711
         6        2.0000           -0.4554633             -12.3938
         7        1.9945           -0.4089576             -11.1283
         8        1.0055           -0.3990884             -10.8597
         9        1.0000           -0.3865237             -10.5178 (HOMO)
        10        0.0000           -0.3632587              -9.8848 (LUMO)
        11                          0.0914366               2.4881
        12                          0.1217301               3.3124
        13                          0.2130052               5.7962
        14                          0.3976772              10.8213
      -------------------------------------------------------------
                  HL-Gap            0.0232650 Eh            0.6331 eV

     #   Z        covCN         q      C6AA      Î±(0)
     1   6 C      3.660     0.134    18.658     6.198
     2   7 N      0.912    -0.271    26.991     7.513
     3   7 N      0.912    -0.271    26.991     7.513
     4   1 H      0.920     0.203     1.082     1.627
Molecule has the following symmetry elements: (C2) 2*(sigma)
It seems to be the C2v point group
     5   1 H      0.920     0.203     1.082     1.627

Wiberg/Mayer (AO) data.
largest (>0.10) Wiberg bond orders for each atom
          total WBO             WBO to atom ...

molecular dipole:
                 x           y           z       tot (Debye)
 q only:       -0.132      -1.107       0.034
   full:       -0.172      -1.435       0.045       3.675

 projected vibrational frequencies (cm-1)
eigval :       -0.00    -0.00    -0.00     0.00     0.00     0.00
eigval :     -406.29   522.30   687.74   823.76   973.03  1145.38
eigval :     1399.28  2580.86  2637.57

   temp. (K)  partition function   enthalpy   heat capacity  entropy
                                   cal/mol     cal/K/mol   cal/K/mol   J/K/mol
  10.00  VIB   1.00                    0.000      0.000     -0.000
         ROT   26.3                   29.809      2.981      9.475
         INT   26.3                   29.809      2.981      9.475
         TR   0.162E+25               49.681      4.968     20.259
         TOT                          79.4904     7.9490    29.7341   124.4074

       T/K    H(0)-H(T)+PV         H(T)/Eh          T*S/Eh         G(T)/Eh
   ------------------------------------------------------------------------
    298.15    0.424374E-02    0.287794E-01    0.275586E-01    0.122078E-02
    120.00    0.152572E-02    0.260614E-01    0.946882E-02    0.165926E-01
    100.00    0.126825E-02    0.258039E-01    0.765609E-02    0.181478E-01
     80.00    0.101362E-02    0.255493E-01    0.589769E-02    0.196516E-01
     60.00    0.760065E-03    0.252957E-01    0.420451E-02    0.210912E-01
     40.00    0.506704E-03    0.250424E-01    0.259761E-02    0.224448E-01
     20.00    0.253352E-03    0.247890E-01    0.112325E-02    0.236658E-01
     10.00    0.126676E-03    0.246624E-01    0.473843E-03    0.241885E-01 (used)
   ------------------------------------------------------------------------

         :::::::::::::::::::::::::::::::::::::::::::::::::::::
         ::                  THERMODYNAMIC                  ::
         :::::::::::::::::::::::::::::::::::::::::::::::::::::
         :: total free energy          -8.664307705367 Eh   ::
         ::.................................................::
         :: total energy               -8.688496214925 Eh   ::
         :: zero point energy           0.024535676462 Eh   ::
         :: G(RRHO) w/o ZPVE           -0.000347166905 Eh   ::
         :: G(RRHO) contrib.            0.024188509558 Eh   ::
         :::::::::::::::::::::::::::::::::::::::::::::::::::::

           -------------------------------------------------
          | TOTAL ENERGY               -8.688496214925 Eh   |
          | TOTAL ENTHALPY             -8.663833862446 Eh   |
          | TOTAL FREE ENERGY          -8.664307705367 Eh   |
          | GRADIENT NORM               0.000169589975 Eh/Î± |
          | HOMO-LUMO GAP               0.633073411698 eV   |
           -------------------------------------------------

 * finished run on 2020/05/12 at 11:45:22.180
