   * xtb version 6.2.2 (9d81278992624c895f80dd42a50cac0aa55982e2) compiled by '@Darwin' on 04/03/2020
          program call               : xtb --input C4N1_47_S_1.input C4N1_47_S_1.xyz --ohess --molden --namespace C4N1_47_S_1 output.out
          number of atoms            :                     5
          number of electrons        :                    21
          charge                     :                     0
          spin                       :                   0.5

   ID    Z sym.   atoms
    1    7 N      1
    2    6 C      2-5

          :  Hamiltonian                  GFN2-xTB          :
 * total energy  :   -10.9834399 Eh     change       -0.3376144E-10 Eh
 * total energy  :   -11.0295757 Eh     change       -0.4613579E-01 Eh
 * total energy  :   -11.0500956 Eh     change       -0.2051998E-01 Eh
 * total energy  :   -11.0562818 Eh     change       -0.6186111E-02 Eh
 * total energy  :   -11.0574107 Eh     change       -0.1128973E-02 Eh
 * total energy  :   -11.0613617 Eh     change       -0.3951026E-02 Eh
 * total energy  :   -11.0625970 Eh     change       -0.1235262E-02 Eh
 * total energy  :   -11.0626756 Eh     change       -0.7861938E-04 Eh
 * total energy  :   -11.0626888 Eh     change       -0.1314825E-04 Eh
 * total energy  :   -11.0626928 Eh     change       -0.3990533E-05 Eh
   *** GEOMETRY OPTIMIZATION CONVERGED AFTER 10 ITERATIONS ***

 final structure:
================
5
 xtb: 6.2.2 (9d81278992624c895f80dd42a50cac0aa55982e2)
N         0.02318091059047   -1.00649390131870    0.05376095030350
C        -0.50265497352862   -0.07461749785579   -0.86433215780164
C        -0.02534528264928    1.05658830724318   -0.05643341007719
C        -0.49787831863641    0.01813605776947    0.87010843148376
C         1.00269766422384    0.00638803416184   -0.00310281390843

          :  Hamiltonian                  GFN2-xTB          :
         :: gradient norm              0.000643698320 Eh/a0 ::
         :: HOMO-LUMO gap              3.150578284361 eV    ::
         :: SCC energy               -11.178301482304 Eh    ::
         :: -> dispersion             -0.002327273106 Eh    ::
         :: repulsion energy           0.115608699040 Eh    ::

    * Orbital Energies and Occupations

         #    Occupation            Energy/Eh            Energy/eV
      -------------------------------------------------------------
         1        2.0000           -0.7941576             -21.6101
         2        2.0000           -0.6760945             -18.3975
         3        2.0000           -0.6646320             -18.0856
         4        2.0000           -0.6645713             -18.0839
         5        2.0000           -0.5600163             -15.2388
         6        2.0000           -0.5598199             -15.2335
         7        2.0000           -0.5314289             -14.4609
         8        2.0000           -0.4787134             -13.0265
         9        2.0000           -0.4699317             -12.7875
        10        2.0000           -0.4698928             -12.7864
        11        1.0000           -0.4286887             -11.6652 (HOMO)
        12                         -0.3129071              -8.5146 (LUMO)
        13                         -0.3125099              -8.5038
        14                         -0.2478688              -6.7449
        15                         -0.0020062              -0.0546
        16                         -0.0011528              -0.0314
        17                          0.0669568               1.8220
        18                          0.0670212               1.8237
        19                          0.0919523               2.5021
        20                          0.3667595               9.9800
      -------------------------------------------------------------
                  HL-Gap            0.1157816 Eh            3.1506 eV

     #   Z        covCN         q      C6AA      Î±(0)
     1   7 N      2.961     0.014    21.007     6.807
     2   6 C      3.690    -0.022    21.155     6.582
     3   6 C      3.169     0.052    26.474     8.406
     4   6 C      3.690    -0.022    21.155     6.582
     5   6 C      3.690    -0.022    21.161     6.583

Wiberg/Mayer (AO) data.
largest (>0.10) Wiberg bond orders for each atom
          total WBO             WBO to atom ...

molecular dipole:
                 x           y           z       tot (Debye)
 q only:       -0.003       0.080      -0.004
   full:       -0.002       0.024      -0.001       0.061

 projected vibrational frequencies (cm-1)
eigval :       -0.00    -0.00    -0.00     0.00     0.00     0.00
eigval :      404.97   405.34   821.49   848.24   849.70  1038.85
eigval :     1040.15  1278.11  1393.87

   temp. (K)  partition function   enthalpy   heat capacity  entropy
                                   cal/mol     cal/K/mol   cal/K/mol   J/K/mol
  10.00  VIB   1.00                    0.000      0.000     -0.001
         ROT   43.1                   29.809      2.981     10.458
         INT   43.1                   29.809      2.981     10.457
         TR   0.290E+25               49.681      4.968     21.419
         TOT                          79.4904     7.9490    31.8764   133.3708

       T/K    H(0)-H(T)+PV         H(T)/Eh          T*S/Eh         G(T)/Eh
   ------------------------------------------------------------------------
    298.15    0.467190E-02    0.230811E-01    0.292133E-01   -0.613220E-02
    120.00    0.154955E-02    0.199588E-01    0.990763E-02    0.100512E-01
    100.00    0.127772E-02    0.196869E-01    0.800877E-02    0.116782E-01
     80.00    0.101594E-02    0.194252E-01    0.617356E-02    0.132516E-01
     60.00    0.760279E-03    0.191695E-01    0.440965E-02    0.147599E-01
     40.00    0.506706E-03    0.189159E-01    0.273420E-02    0.161817E-01
     20.00    0.253352E-03    0.186626E-01    0.119153E-02    0.174710E-01
     10.00    0.126676E-03    0.185359E-01    0.507983E-03    0.180279E-01 (used)
   ------------------------------------------------------------------------

         :::::::::::::::::::::::::::::::::::::::::::::::::::::
         ::                  THERMODYNAMIC                  ::
         :::::::::::::::::::::::::::::::::::::::::::::::::::::
         :: total free energy         -11.044664846203 Eh   ::
         ::.................................................::
         :: total energy              -11.062692769379 Eh   ::
         :: zero point energy           0.018409229819 Eh   ::
         :: G(RRHO) w/o ZPVE           -0.000381306643 Eh   ::
         :: G(RRHO) contrib.            0.018027923176 Eh   ::
         :::::::::::::::::::::::::::::::::::::::::::::::::::::

           -------------------------------------------------
          | TOTAL ENERGY              -11.062692769379 Eh   |
          | TOTAL ENTHALPY            -11.044156863544 Eh   |
          | TOTAL FREE ENERGY         -11.044664846203 Eh   |
          | GRADIENT NORM               0.000643648623 Eh/Î± |
          | HOMO-LUMO GAP               3.150577802681 eV   |
           -------------------------------------------------

 * finished run on 2020/05/12 at 11:44:19.702
