   * xtb version 6.2.2 (9d81278992624c895f80dd42a50cac0aa55982e2) compiled by '@Darwin' on 04/03/2020
          program call               : xtb --input C4N1_4_S_3.input C4N1_4_S_3.xyz --ohess --molden --namespace C4N1_4_S_3 output.out
          number of atoms            :                     5
          number of electrons        :                    21
          charge                     :                     0
          spin                       :                   1.5

   ID    Z sym.   atoms
    1    6 C      1, 2, 4, 5
    2    7 N      3

          :  Hamiltonian                  GFN2-xTB          :
 * total energy  :   -10.8094584 Eh     change       -0.9276686E-09 Eh
 * total energy  :   -10.8976514 Eh     change       -0.8819304E-01 Eh
 * total energy  :   -10.8959835 Eh     change        0.1667876E-02 Eh
 * total energy  :   -10.9451416 Eh     change       -0.4915811E-01 Eh
 * total energy  :   -10.9537061 Eh     change       -0.8564480E-02 Eh
 * total energy  :   -10.9648773 Eh     change       -0.1117122E-01 Eh
 * total energy  :   -10.9683397 Eh     change       -0.3462375E-02 Eh
 * total energy  :   -10.9780120 Eh     change       -0.9672319E-02 Eh
 * total energy  :   -11.0187189 Eh     change       -0.4070685E-01 Eh
 * total energy  :   -10.8522207 Eh     change        0.1664982E+00 Eh
 * total energy  :   -11.0440560 Eh     change       -0.5529839E-03 Eh
 * total energy  :   -11.0443359 Eh     change       -0.2798689E-03 Eh
 * total energy  :   -11.0444605 Eh     change       -0.1246831E-03 Eh
 * total energy  :   -11.0444924 Eh     change       -0.3183710E-04 Eh
 * total energy  :   -11.0445003 Eh     change       -0.7903515E-05 Eh
 * total energy  :   -11.0445128 Eh     change       -0.1253163E-04 Eh
 * total energy  :   -11.0445272 Eh     change       -0.1437556E-04 Eh
 * total energy  :   -11.0445334 Eh     change       -0.6247127E-05 Eh
 * total energy  :   -11.0445375 Eh     change       -0.4083399E-05 Eh
   *** GEOMETRY OPTIMIZATION CONVERGED AFTER 25 ITERATIONS ***

 final structure:
================
5
 xtb: 6.2.2 (9d81278992624c895f80dd42a50cac0aa55982e2)
C        -1.57237064398215   -0.55113227987060   -0.05573407015541
C        -0.20472551713884    0.00904968241443    0.17826344813461
N         1.02868472006983   -0.06690839229114   -0.01720817387698
C        -1.48645278322079    0.74712621139897   -0.03967266237240
C         2.23486422427196   -0.13813522165165   -0.06564854172982

          :  Hamiltonian                  GFN2-xTB          :
         :: gradient norm              0.000959162340 Eh/a0 ::
         :: HOMO-LUMO gap              2.143612434550 eV    ::
         :: SCC energy               -11.251009562183 Eh    ::
         :: -> dispersion             -0.002785064068 Eh    ::
         :: repulsion energy           0.206472147202 Eh    ::

    * Orbital Energies and Occupations

         #    Occupation            Energy/Eh            Energy/eV
      -------------------------------------------------------------
         1        2.0000           -0.7222078             -19.6523
         2        2.0000           -0.7058890             -19.2082
         3        2.0000           -0.6619518             -18.0126
         4        2.0000           -0.5905545             -16.0698
         5        2.0000           -0.5714555             -15.5501
         6        2.0000           -0.5575119             -15.1707
         7        2.0000           -0.5260663             -14.3150
         8        2.0000           -0.5005431             -13.6205
         9        2.0000           -0.4585089             -12.4767
        10        1.0000           -0.4169185             -11.3449
        11        1.0000           -0.4122959             -11.2191
        12        1.0000           -0.3513620              -9.5610 (HOMO)
        13                         -0.2725857              -7.4174 (LUMO)
        14                         -0.2578361              -7.0161
        15                         -0.2023816              -5.5071
        16                         -0.0320125              -0.8711
        17                         -0.0143716              -0.3911
        18                          0.3656671               9.9503
        19                          0.5546937              15.0940
        20                          1.0234677              27.8500
      -------------------------------------------------------------
                  HL-Gap            0.0787763 Eh            2.1436 eV

     #   Z        covCN         q      C6AA      Î±(0)
     1   6 C      1.958    -0.017    31.537     9.069
     2   6 C      2.872     0.112    25.529     8.283
     3   7 N      1.821     0.060    20.851     6.766
     4   6 C      1.958    -0.017    31.535     9.069
     5   6 C      0.918    -0.137    39.887    10.574

Wiberg/Mayer (AO) data.
largest (>0.10) Wiberg bond orders for each atom
          total WBO             WBO to atom ...

molecular dipole:
                 x           y           z       tot (Debye)
 q only:       -0.405       0.024       0.056
   full:       -0.750       0.043       0.090       1.923

 projected vibrational frequencies (cm-1)
eigval :       -0.00     0.00     0.00     0.00     0.00     0.00
eigval :      138.23   150.22   310.32   389.98   551.19   763.23
eigval :     1470.66  1756.46  1920.15

   temp. (K)  partition function   enthalpy   heat capacity  entropy
                                   cal/mol     cal/K/mol   cal/K/mol   J/K/mol
  10.00  VIB   1.00                    0.000      0.000     -0.027
         ROT   210.                   29.809      2.981     13.609
         INT   210.                   29.809      2.981     13.581
         TR   0.290E+25               49.681      4.968     21.419
         TOT                          79.4904     7.9490    35.0008   146.4434

       T/K    H(0)-H(T)+PV         H(T)/Eh          T*S/Eh         G(T)/Eh
   ------------------------------------------------------------------------
    298.15    0.609717E-02    0.230705E-01    0.335722E-01   -0.105017E-01
    120.00    0.185940E-02    0.188328E-01    0.109789E-01    0.785383E-02
    100.00    0.147966E-02    0.184530E-01    0.880377E-02    0.964926E-02
     80.00    0.112690E-02    0.181003E-01    0.672892E-02    0.113713E-01
     60.00    0.803983E-03    0.177774E-01    0.476869E-02    0.130087E-01
     40.00    0.514215E-03    0.174876E-01    0.294479E-02    0.145428E-01
     20.00    0.253396E-03    0.172268E-01    0.129181E-02    0.159350E-01
     10.00    0.126676E-03    0.171000E-01    0.557773E-03    0.165423E-01 (used)
   ------------------------------------------------------------------------

         :::::::::::::::::::::::::::::::::::::::::::::::::::::
         ::                  THERMODYNAMIC                  ::
         :::::::::::::::::::::::::::::::::::::::::::::::::::::
         :: total free energy         -11.027995254473 Eh   ::
         ::.................................................::
         :: total energy              -11.044537525456 Eh   ::
         :: zero point energy           0.016973368273 Eh   ::
         :: G(RRHO) w/o ZPVE           -0.000431097290 Eh   ::
         :: G(RRHO) contrib.            0.016542270983 Eh   ::
         :::::::::::::::::::::::::::::::::::::::::::::::::::::

           -------------------------------------------------
          | TOTAL ENERGY              -11.044537525456 Eh   |
          | TOTAL ENTHALPY            -11.027437481166 Eh   |
          | TOTAL FREE ENERGY         -11.027995254473 Eh   |
          | GRADIENT NORM               0.000959195118 Eh/Î± |
          | HOMO-LUMO GAP               2.143613306859 eV   |
           -------------------------------------------------

 * finished run on 2020/05/12 at 11:43:59.116
