   * xtb version 6.2.2 (9d81278992624c895f80dd42a50cac0aa55982e2) compiled by '@Darwin' on 04/03/2020
          program call               : xtb --input H2C2O1_5_S_0.input H2C2O1_5_S_0.xyz --ohess --molden --namespace H2C2O1_5_S_0 output.out
          number of atoms            :                     5
          number of electrons        :                    16
          charge                     :                     0
          spin                       :                   0.0

   ID    Z sym.   atoms
    1    8 O      1
    2    6 C      2, 3
    3    1 H      4, 5

          :  Hamiltonian                  GFN2-xTB          :
 * total energy  :    -9.0908748 Eh     change       -0.1093063E-09 Eh
 * total energy  :    -9.1509766 Eh     change       -0.6010184E-01 Eh
 * total energy  :    -9.2235135 Eh     change       -0.7253687E-01 Eh
 * total energy  :    -9.2225379 Eh     change        0.9756275E-03 Eh
 * total energy  :    -9.2266359 Eh     change       -0.4098016E-02 Eh
 * total energy  :    -9.2265963 Eh     change        0.3961836E-04 Eh
 * total energy  :    -9.2273182 Eh     change       -0.7219163E-03 Eh
 * total energy  :    -9.2273699 Eh     change       -0.5170171E-04 Eh
 * total energy  :    -9.2273948 Eh     change       -0.2490240E-04 Eh
 * total energy  :    -9.2273865 Eh     change        0.8261429E-05 Eh
 * total energy  :    -9.2273952 Eh     change       -0.8655078E-05 Eh
 * total energy  :    -9.2273952 Eh     change       -0.9427955E-08 Eh
   *** GEOMETRY OPTIMIZATION CONVERGED AFTER 12 ITERATIONS ***

 final structure:
================
5
 xtb: 6.2.2 (9d81278992624c895f80dd42a50cac0aa55982e2)
O         0.79661122329016   -0.51067050276129    0.64871209520308
C        -0.28052777858649    0.08997769786101   -0.07977745460014
C         1.15534161309073    0.07936300763130   -0.41585376762883
H        -0.95235519827020   -0.61291934059568   -0.55015240612132
H        -0.71906985952421    0.95424813786466    0.39707153314722

          :  Hamiltonian                  GFN2-xTB          :
         :: gradient norm              0.000135629440 Eh/a0 ::
         :: HOMO-LUMO gap              3.390034487692 eV    ::
         :: SCC energy                -9.311714465169 Eh    ::
         :: -> dispersion             -0.001342960104 Eh    ::
         :: repulsion energy           0.084319254206 Eh    ::

    * Orbital Energies and Occupations

         #    Occupation            Energy/Eh            Energy/eV
      -------------------------------------------------------------
         1        2.0000           -0.7746949             -21.0805
         2        2.0000           -0.6634443             -18.0532
         3        2.0000           -0.6454160             -17.5627
         4        2.0000           -0.6022368             -16.3877
         5        2.0000           -0.5649730             -15.3737
         6        2.0000           -0.4881399             -13.2830
         7        2.0000           -0.4850362             -13.1985
         8        2.0000           -0.4312933             -11.7361 (HOMO)
         9                         -0.3067118              -8.3461 (LUMO)
        10                         -0.1010862              -2.7507
        11                          0.0630796               1.7165
        12                          0.1662597               4.5242
        13                          0.2463047               6.7023
        14                          0.3944314              10.7330
      -------------------------------------------------------------
                  HL-Gap            0.1245815 Eh            3.3900 eV

     #   Z        covCN         q      C6AA      Î±(0)
     1   8 O      1.703    -0.133    16.307     5.452
     2   6 C      3.677     0.054    19.880     6.388
     3   6 C      1.833    -0.021    31.726     9.100
     4   1 H      0.926     0.050     2.324     2.384
     5   1 H      0.926     0.050     2.324     2.384

Wiberg/Mayer (AO) data.
largest (>0.10) Wiberg bond orders for each atom
          total WBO             WBO to atom ...

molecular dipole:
                 x           y           z       tot (Debye)
 q only:       -0.431       0.166      -0.168
   full:       -0.785      -0.025       0.235       2.085

 projected vibrational frequencies (cm-1)
eigval :       -0.00    -0.00    -0.00     0.00     0.00     0.00
eigval :      882.84   943.11   967.86  1096.61  1120.50  1401.43
eigval :     1570.44  3083.19  3102.38

   temp. (K)  partition function   enthalpy   heat capacity  entropy
                                   cal/mol     cal/K/mol   cal/K/mol   J/K/mol
  10.00  VIB   1.00                    0.000      0.000     -0.000
         ROT   41.0                   29.809      2.981     10.360
         INT   41.0                   29.809      2.981     10.360
         TR   0.162E+25               49.681      4.968     20.259
         TOT                          79.4904     7.9490    30.6190   128.1097

       T/K    H(0)-H(T)+PV         H(T)/Eh          T*S/Eh         G(T)/Eh
   ------------------------------------------------------------------------
    298.15    0.398132E-02    0.362592E-01    0.276140E-01    0.864519E-02
    120.00    0.152032E-02    0.337982E-01    0.963176E-02    0.241665E-01
    100.00    0.126678E-02    0.335447E-01    0.779541E-02    0.257493E-01
     80.00    0.101341E-02    0.332913E-01    0.601024E-02    0.272811E-01
     60.00    0.760056E-03    0.330379E-01    0.428909E-02    0.287489E-01
     40.00    0.506704E-03    0.327846E-01    0.265401E-02    0.301306E-01
     20.00    0.253352E-03    0.325312E-01    0.115145E-02    0.313798E-01
     10.00    0.126676E-03    0.324046E-01    0.487944E-03    0.319166E-01 (used)
   ------------------------------------------------------------------------

         :::::::::::::::::::::::::::::::::::::::::::::::::::::
         ::                  THERMODYNAMIC                  ::
         :::::::::::::::::::::::::::::::::::::::::::::::::::::
         :: total free energy          -9.195478569952 Eh   ::
         ::.................................................::
         :: total energy               -9.227395192017 Eh   ::
         :: zero point energy           0.032277890117 Eh   ::
         :: G(RRHO) w/o ZPVE           -0.000361268052 Eh   ::
         :: G(RRHO) contrib.            0.031916622064 Eh   ::
         :::::::::::::::::::::::::::::::::::::::::::::::::::::

           -------------------------------------------------
          | TOTAL ENERGY               -9.227395192017 Eh   |
          | TOTAL ENTHALPY             -9.194990625884 Eh   |
          | TOTAL FREE ENERGY          -9.195478569952 Eh   |
          | GRADIENT NORM               0.000135592485 Eh/Î± |
          | HOMO-LUMO GAP               3.390035017429 eV   |
           -------------------------------------------------

 * finished run on 2020/05/12 at 11:45:14.757
