   * xtb version 6.2.2 (9d81278992624c895f80dd42a50cac0aa55982e2) compiled by '@Darwin' on 04/03/2020
          program call               : xtb --input H1C4_0_S_1.input H1C4_0_S_1.xyz --ohess --molden --namespace H1C4_0_S_1 output.out
          number of atoms            :                     5
          number of electrons        :                    17
          charge                     :                     0
          spin                       :                   0.5

   ID    Z sym.   atoms
    1    6 C      1-4
    2    1 H      5

          :  Hamiltonian                  GFN2-xTB          :
 * total energy  :    -8.5135757 Eh     change        0.4163034E-09 Eh
 * total energy  :    -8.5584842 Eh     change       -0.4490844E-01 Eh
 * total energy  :    -8.5928071 Eh     change       -0.3432296E-01 Eh
 * total energy  :    -8.6190373 Eh     change       -0.2623020E-01 Eh
 * total energy  :    -8.6559711 Eh     change       -0.3693378E-01 Eh
 * total energy  :    -8.7047257 Eh     change       -0.4875460E-01 Eh
 * total energy  :    -8.6127998 Eh     change        0.9192593E-01 Eh
 * total energy  :    -8.7106556 Eh     change       -0.9785578E-01 Eh
 * total energy  :    -8.7054692 Eh     change        0.5186396E-02 Eh
 * total energy  :    -8.7116735 Eh     change       -0.6204287E-02 Eh
 * total energy  :    -8.7142931 Eh     change       -0.8317083E-04 Eh
 * total energy  :    -8.7143340 Eh     change       -0.4090348E-04 Eh
 * total energy  :    -8.7143514 Eh     change       -0.1739272E-04 Eh
 * total energy  :    -8.7143626 Eh     change       -0.1113673E-04 Eh
 * total energy  :    -8.7143698 Eh     change       -0.7252424E-05 Eh
 * total energy  :    -8.7143766 Eh     change       -0.6805285E-05 Eh
 * total energy  :    -8.7143834 Eh     change       -0.6722776E-05 Eh
 * total energy  :    -8.7143879 Eh     change       -0.4575699E-05 Eh
 * total energy  :    -8.7143890 Eh     change       -0.1031457E-05 Eh
   *** GEOMETRY OPTIMIZATION CONVERGED AFTER 24 ITERATIONS ***

 final structure:
================
5
 xtb: 6.2.2 (9d81278992624c895f80dd42a50cac0aa55982e2)
C         0.70871552187372    0.04948871866151   -0.01435398560870
C        -0.45561944171458   -0.73239934742730    0.30357787262260
C        -0.38995289317013    0.77028569409240   -0.32792479278706
C        -1.63369178380941   -0.10720081994900    0.02983371979826
H         1.77054859682040    0.01982575462238    0.00886718597489

          :  Hamiltonian                  GFN2-xTB          :
         :: gradient norm              0.000355913992 Eh/a0 ::
         :: HOMO-LUMO gap              1.594920511552 eV    ::
         :: SCC energy                -8.860761717538 Eh    ::
         :: -> dispersion             -0.002149583428 Eh    ::
         :: repulsion energy           0.146372763760 Eh    ::

    * Orbital Energies and Occupations

         #    Occupation            Energy/Eh            Energy/eV
      -------------------------------------------------------------
         1        2.0000           -0.7148058             -19.4509
         2        2.0000           -0.6372415             -17.3402
         3        2.0000           -0.5873079             -15.9815
         4        2.0000           -0.5591995             -15.2166
         5        2.0000           -0.5278892             -14.3646
         6        2.0000           -0.5062354             -13.7754
         7        2.0000           -0.4386374             -11.9359
         8        2.0000           -0.4088212             -11.1246
         9        1.0000           -0.3768076             -10.2535 (HOMO)
        10                         -0.3181955              -8.6585 (LUMO)
        11                         -0.2660292              -7.2390
        12                         -0.1954294              -5.3179
        13                          0.0180790               0.4920
        14                          0.0791634               2.1541
        15                          0.1800505               4.8994
        16                          0.4265209              11.6062
        17                          0.6145754              16.7234
      -------------------------------------------------------------
                  HL-Gap            0.0586121 Eh            1.5949 eV

     #   Z        covCN         q      C6AA      Î±(0)
     1   6 C      2.919     0.036    27.189     8.551
     2   6 C      2.916     0.023    27.483     8.597
     3   6 C      2.907    -0.011    28.296     8.722
     4   6 C      1.983    -0.131    34.721     9.516
     5   1 H      0.927     0.082     1.955     2.186

Wiberg/Mayer (AO) data.
largest (>0.10) Wiberg bond orders for each atom
          total WBO             WBO to atom ...

molecular dipole:
                 x           y           z       tot (Debye)
 q only:        0.716      -0.016       0.013
   full:        1.465      -0.115       0.062       3.740

 projected vibrational frequencies (cm-1)
eigval :       -0.00    -0.00    -0.00     0.00     0.00     0.00
eigval :      222.03   396.78   585.65   680.41   920.12  1032.83
eigval :     1437.92  1509.51  3236.65

   temp. (K)  partition function   enthalpy   heat capacity  entropy
                                   cal/mol     cal/K/mol   cal/K/mol   J/K/mol
  10.00  VIB   1.00                    0.000      0.000     -0.004
         ROT   84.6                   29.809      2.981     11.800
         INT   84.6                   29.809      2.981     11.796
         TR   0.204E+25               49.681      4.968     20.719
         TOT                          79.4904     7.9490    32.5147   136.0415

       T/K    H(0)-H(T)+PV         H(T)/Eh          T*S/Eh         G(T)/Eh
   ------------------------------------------------------------------------
    298.15    0.499875E-02    0.278303E-01    0.301509E-01   -0.232054E-02
    120.00    0.161505E-02    0.244466E-01    0.101213E-01    0.143253E-01
    100.00    0.131678E-02    0.241484E-01    0.816281E-02    0.159855E-01
     80.00    0.103394E-02    0.238655E-01    0.627809E-02    0.175874E-01
     60.00    0.765145E-03    0.235967E-01    0.447686E-02    0.191199E-01
     40.00    0.507049E-03    0.233386E-01    0.277549E-02    0.205631E-01
     20.00    0.253352E-03    0.230849E-01    0.121193E-02    0.218730E-01
     10.00    0.126676E-03    0.229582E-01    0.518155E-03    0.224401E-01 (used)
   ------------------------------------------------------------------------

         :::::::::::::::::::::::::::::::::::::::::::::::::::::
         ::                  THERMODYNAMIC                  ::
         :::::::::::::::::::::::::::::::::::::::::::::::::::::
         :: total free energy          -8.691948869569 Eh   ::
         ::.................................................::
         :: total energy               -8.714388964621 Eh   ::
         :: zero point energy           0.022831573855 Eh   ::
         :: G(RRHO) w/o ZPVE           -0.000391478802 Eh   ::
         :: G(RRHO) contrib.            0.022440095053 Eh   ::
         :::::::::::::::::::::::::::::::::::::::::::::::::::::

           -------------------------------------------------
          | TOTAL ENERGY               -8.714388964621 Eh   |
          | TOTAL ENTHALPY             -8.691430714751 Eh   |
          | TOTAL FREE ENERGY          -8.691948869569 Eh   |
          | GRADIENT NORM               0.000355725291 Eh/Î± |
          | HOMO-LUMO GAP               1.594917366091 eV   |
           -------------------------------------------------

 * finished run on 2020/05/12 at 11:45:07.784
