   * xtb version 6.2.2 (9d81278992624c895f80dd42a50cac0aa55982e2) compiled by '@Darwin' on 04/03/2020
          program call               : xtb --input H2C2O1_4_S_2.input H2C2O1_4_S_2.xyz --ohess --molden --namespace H2C2O1_4_S_2 output.out
          number of atoms            :                     5
          number of electrons        :                    16
          charge                     :                     0
          spin                       :                   1.0

   ID    Z sym.   atoms
    1    6 C      1, 2
    2    8 O      3
    3    1 H      4, 5

          :  Hamiltonian                  GFN2-xTB          :
 * total energy  :    -9.0734763 Eh     change        0.2971614E-09 Eh
 * total energy  :    -9.0993980 Eh     change       -0.2592165E-01 Eh
 * total energy  :    -9.0250076 Eh     change        0.7439044E-01 Eh
 * total energy  :    -9.1123774 Eh     change       -0.8736985E-01 Eh
 * total energy  :    -9.1165502 Eh     change       -0.4172777E-02 Eh
 * total energy  :    -9.1176140 Eh     change       -0.1063783E-02 Eh
 * total energy  :    -9.1172002 Eh     change        0.4137731E-03 Eh
 * total energy  :    -9.1184301 Eh     change       -0.1229956E-02 Eh
 * total energy  :    -9.1185341 Eh     change       -0.1039787E-03 Eh
 * total energy  :    -9.1185775 Eh     change       -0.4338968E-04 Eh
 * total energy  :    -9.1186381 Eh     change       -0.6056406E-04 Eh
 * total energy  :    -9.1186724 Eh     change       -0.3429191E-04 Eh
 * total energy  :    -9.1187094 Eh     change       -0.3700816E-04 Eh
 * total energy  :    -9.1187205 Eh     change       -0.1108667E-04 Eh
 * total energy  :    -9.1187203 Eh     change        0.1654924E-06 Eh
 * total energy  :    -9.1187248 Eh     change       -0.4526051E-05 Eh
   *** GEOMETRY OPTIMIZATION CONVERGED AFTER 16 ITERATIONS ***

 final structure:
================
5
 xtb: 6.2.2 (9d81278992624c895f80dd42a50cac0aa55982e2)
C        -0.05401496585361   -0.47324980764205   -0.46393186518482
C         1.06623448679337   -0.61085123785646    0.17960934493894
O        -1.11574015312393    0.27691531998811   -0.07972075280406
H         1.41212855362941   -0.15234685342844    1.10006956976914
H        -1.30860792144525    0.95953257893884   -0.73602629671920

          :  Hamiltonian                  GFN2-xTB          :
         :: gradient norm              0.000631472160 Eh/a0 ::
         :: HOMO-LUMO gap              3.167122409716 eV    ::
         :: SCC energy                -9.223162647603 Eh    ::
         :: -> dispersion             -0.001362488542 Eh    ::
         :: repulsion energy           0.104437815658 Eh    ::

    * Orbital Energies and Occupations

         #    Occupation            Energy/Eh            Energy/eV
      -------------------------------------------------------------
         1        2.0000           -0.7236250             -19.6908
         2        2.0000           -0.6423902             -17.4803
         3        2.0000           -0.5925454             -16.1240
         4        2.0000           -0.5661735             -15.4064
         5        2.0000           -0.5216030             -14.1935
         6        2.0000           -0.5047458             -13.7348
         7        2.0000           -0.4052503             -11.0274
         8        1.0000           -0.3699795             -10.0677
         9        1.0000           -0.3090162              -8.4088 (HOMO)
        10                         -0.1926266              -5.2416 (LUMO)
        11                          0.0866687               2.3584
        12                          0.1876897               5.1073
        13                          0.2642789               7.1914
        14                          0.6835033              18.5991
      -------------------------------------------------------------
                  HL-Gap            0.1163896 Eh            3.1671 eV

     #   Z        covCN         q      C6AA      Î±(0)
     1   6 C      1.834     0.048    29.927     8.838
     2   6 C      1.907    -0.105    34.018     9.419
     3   8 O      1.659    -0.328    19.509     5.963
     4   1 H      0.925     0.069     2.099     2.266
     5   1 H      0.805     0.316     0.674     1.290

Wiberg/Mayer (AO) data.
largest (>0.10) Wiberg bond orders for each atom
          total WBO             WBO to atom ...

molecular dipole:
                 x           y           z       tot (Debye)
 q only:       -0.123       0.460      -0.325
   full:       -0.212       0.725      -0.243       2.016

 projected vibrational frequencies (cm-1)
eigval :       -0.00    -0.00    -0.00    -0.00     0.00     0.00
eigval :      275.34   453.58   592.15   897.20  1068.37  1112.26
eigval :     1711.81  2908.01  3466.14

   temp. (K)  partition function   enthalpy   heat capacity  entropy
                                   cal/mol     cal/K/mol   cal/K/mol   J/K/mol
  10.00  VIB   1.00                    0.000      0.000     -0.002
         ROT   48.9                   29.809      2.981     10.712
         INT   48.9                   29.809      2.981     10.710
         TR   0.162E+25               49.681      4.968     20.259
         TOT                          79.4904     7.9490    30.9690   129.5741

       T/K    H(0)-H(T)+PV         H(T)/Eh          T*S/Eh         G(T)/Eh
   ------------------------------------------------------------------------
    298.15    0.476247E-02    0.332051E-01    0.290009E-01    0.420422E-02
    120.00    0.157945E-02    0.300221E-01    0.977457E-02    0.202475E-01
    100.00    0.129468E-02    0.297373E-01    0.788613E-02    0.218512E-01
     80.00    0.102300E-02    0.294656E-01    0.606665E-02    0.233990E-01
     60.00    0.761801E-03    0.292044E-01    0.432478E-02    0.248796E-01
     40.00    0.506767E-03    0.289494E-01    0.267650E-02    0.262729E-01
     20.00    0.253352E-03    0.286960E-01    0.116263E-02    0.275333E-01
     10.00    0.126676E-03    0.285693E-01    0.493522E-03    0.280758E-01 (used)
   ------------------------------------------------------------------------

         :::::::::::::::::::::::::::::::::::::::::::::::::::::
         ::                  THERMODYNAMIC                  ::
         :::::::::::::::::::::::::::::::::::::::::::::::::::::
         :: total free energy          -9.090649068511 Eh   ::
         ::.................................................::
         :: total energy               -9.118724827064 Eh   ::
         :: zero point energy           0.028442604312 Eh   ::
         :: G(RRHO) w/o ZPVE           -0.000366845759 Eh   ::
         :: G(RRHO) contrib.            0.028075758553 Eh   ::
         :::::::::::::::::::::::::::::::::::::::::::::::::::::

           -------------------------------------------------
          | TOTAL ENERGY               -9.118724827064 Eh   |
          | TOTAL ENTHALPY             -9.090155546736 Eh   |
          | TOTAL FREE ENERGY          -9.090649068511 Eh   |
          | GRADIENT NORM               0.000631487290 Eh/Î± |
          | HOMO-LUMO GAP               3.167122563809 eV   |
           -------------------------------------------------

 * finished run on 2020/05/12 at 11:45:14.594
