   * xtb version 6.2.2 (9d81278992624c895f80dd42a50cac0aa55982e2) compiled by '@Darwin' on 04/03/2020
          program call               : xtb --input H3C1N1_0_S_2.input H3C1N1_0_S_2.xyz --ohess --molden --namespace H3C1N1_0_S_2 output.out
          number of atoms            :                     5
          number of electrons        :                    12
          charge                     :                     0
          spin                       :                   1.0

   ID    Z sym.   atoms
    1    6 C      1
    2    7 N      2
    3    1 H      3-5

          :  Hamiltonian                  GFN2-xTB          :
 * total energy  :    -6.4067375 Eh     change        0.6872281E-09 Eh
 * total energy  :    -6.4121741 Eh     change       -0.5436687E-02 Eh
 * total energy  :    -6.4130959 Eh     change       -0.9217127E-03 Eh
 * total energy  :    -6.4132151 Eh     change       -0.1192633E-03 Eh
 * total energy  :    -6.4132265 Eh     change       -0.1133142E-04 Eh
 * total energy  :    -6.4132265 Eh     change       -0.6777967E-07 Eh
   *** GEOMETRY OPTIMIZATION CONVERGED AFTER 6 ITERATIONS ***

 final structure:
================
5
 xtb: 6.2.2 (9d81278992624c895f80dd42a50cac0aa55982e2)
C        -0.02849419924705    0.00056191480782   -0.00280310307033
N         1.31423933667494   -0.02591725542279    0.12928764030278
H        -0.53126516172730   -0.15826923915945    0.96821868964735
H        -0.37420339949617    0.97116044726424   -0.40194334832840
H        -0.38027657620442   -0.78753586748983   -0.69275987855141

          :  Hamiltonian                  GFN2-xTB          :
         :: gradient norm              0.000095119865 Eh/a0 ::
         :: HOMO-LUMO gap             13.277777479317 eV    ::
         :: SCC energy                -6.482304026755 Eh    ::
         :: -> dispersion             -0.000920413853 Eh    ::
         :: repulsion energy           0.069077495240 Eh    ::

    * Orbital Energies and Occupations

         #    Occupation            Energy/Eh            Energy/eV
      -------------------------------------------------------------
         1        2.0000           -0.6444353             -17.5360
         2        2.0000           -0.5746300             -15.6365
         3        2.0000           -0.5238264             -14.2540
         4        2.0000           -0.5238264             -14.2540
         5        2.0000           -0.4300949             -11.7035
         6        1.0000           -0.3641544              -9.9091
         7        1.0000           -0.3641544              -9.9091 (HOMO)
         8                          0.1237950               3.3686 (LUMO)
         9                          0.1739013               4.7321
        10                          0.1739013               4.7321
        11                          0.2569512               6.9920
      -------------------------------------------------------------
                  HL-Gap            0.4879493 Eh           13.2778 eV

     #   Z        covCN         q      C6AA      Î±(0)
     1   6 C      3.677    -0.001    20.823     6.537
     2   7 N      0.910    -0.260    26.757     7.482
     3   1 H      0.922     0.087     1.907     2.160
     4   1 H      0.922     0.087     1.907     2.160
     5   1 H      0.922     0.087     1.907     2.160

Wiberg/Mayer (AO) data.
largest (>0.10) Wiberg bond orders for each atom
          total WBO             WBO to atom ...

molecular dipole:
                 x           y           z       tot (Debye)
 q only:       -0.858       0.017      -0.084
   full:       -1.277       0.025      -0.126       3.263

 projected vibrational frequencies (cm-1)
eigval :       -0.00    -0.00    -0.00     0.00     0.00     0.00
eigval :      930.26   930.37  1270.30  1306.22  1347.94  1348.01
eigval :     2775.07  2775.08  2819.34
Molecule has the following symmetry elements: (C3) 3*(sigma)
It seems to be the C3v point group

   temp. (K)  partition function   enthalpy   heat capacity  entropy
                                   cal/mol     cal/K/mol   cal/K/mol   J/K/mol
  10.00  VIB   1.00                    0.000      0.000     -0.000
         ROT   4.71                   29.809      2.981      6.061
         INT   4.71                   29.809      2.981      6.061
         TR   0.930E+24               49.681      4.968     19.157
         TOT                          79.4904     7.9490    25.2179   105.5119

       T/K    H(0)-H(T)+PV         H(T)/Eh          T*S/Eh         G(T)/Eh
   ------------------------------------------------------------------------
    298.15    0.391511E-02    0.392326E-01    0.249666E-01    0.142660E-01
    120.00    0.152024E-02    0.368377E-01    0.859881E-02    0.282389E-01
    100.00    0.126677E-02    0.365843E-01    0.693469E-02    0.296496E-01
     80.00    0.101341E-02    0.363309E-01    0.532168E-02    0.310092E-01
     60.00    0.760056E-03    0.360775E-01    0.377267E-02    0.323049E-01
     40.00    0.506704E-03    0.358242E-01    0.230972E-02    0.335145E-01
     20.00    0.253352E-03    0.355708E-01    0.979304E-03    0.345915E-01
     10.00    0.126676E-03    0.354442E-01    0.401874E-03    0.350423E-01 (used)
   ------------------------------------------------------------------------

         :::::::::::::::::::::::::::::::::::::::::::::::::::::
         ::                  THERMODYNAMIC                  ::
         :::::::::::::::::::::::::::::::::::::::::::::::::::::
         :: total free energy          -6.378184232771 Eh   ::
         ::.................................................::
         :: total energy               -6.413226516653 Eh   ::
         :: zero point energy           0.035317481401 Eh   ::
         :: G(RRHO) w/o ZPVE           -0.000275197519 Eh   ::
         :: G(RRHO) contrib.            0.035042283882 Eh   ::
         :::::::::::::::::::::::::::::::::::::::::::::::::::::

           -------------------------------------------------
          | TOTAL ENERGY               -6.413226516653 Eh   |
          | TOTAL ENTHALPY             -6.377782359236 Eh   |
          | TOTAL FREE ENERGY          -6.378184232771 Eh   |
          | GRADIENT NORM               0.000095123202 Eh/Î± |
          | HOMO-LUMO GAP              13.277777077365 eV   |
           -------------------------------------------------

 * finished run on 2020/05/12 at 11:44:28.085
