   * xtb version 6.2.2 (9d81278992624c895f80dd42a50cac0aa55982e2) compiled by '@Darwin' on 04/03/2020
          program call               : xtb --input C4N1_43_S_1.input C4N1_43_S_1.xyz --ohess --molden --namespace C4N1_43_S_1 output.out
          number of atoms            :                     5
          number of electrons        :                    21
          charge                     :                     0
          spin                       :                   0.5

   ID    Z sym.   atoms
    1    6 C      1, 3-5
    2    7 N      2

          :  Hamiltonian                  GFN2-xTB          :
 * total energy  :   -10.9245316 Eh     change        0.2107434E-09 Eh
 * total energy  :   -10.9694296 Eh     change       -0.4489802E-01 Eh
 * total energy  :   -11.0135115 Eh     change       -0.4408195E-01 Eh
 * total energy  :   -11.0255477 Eh     change       -0.1203615E-01 Eh
 * total energy  :   -11.0264484 Eh     change       -0.9006988E-03 Eh
 * total energy  :   -11.0290660 Eh     change       -0.2617620E-02 Eh
 * total energy  :   -11.0295863 Eh     change       -0.5203056E-03 Eh
 * total energy  :   -11.0302430 Eh     change       -0.6567210E-03 Eh
 * total energy  :   -11.0302773 Eh     change       -0.3423453E-04 Eh
 * total energy  :   -11.0303005 Eh     change       -0.2323692E-04 Eh
 * total energy  :   -11.0303015 Eh     change       -0.9755999E-06 Eh
   *** GEOMETRY OPTIMIZATION CONVERGED AFTER 11 ITERATIONS ***

 final structure:
================
5
 xtb: 6.2.2 (9d81278992624c895f80dd42a50cac0aa55982e2)
C         1.12093077693473   -0.29759485439974    0.42303052476906
N         0.45714641254736    0.29123173135629   -0.65035644641025
C        -0.73151648645768   -0.53194903320366   -0.62784726224402
C        -0.22405114792707   -0.36543607241399    0.76380384221492
C        -0.62250955509734    0.90374822866110    0.09136934167029

          :  Hamiltonian                  GFN2-xTB          :
         :: gradient norm              0.000517105881 Eh/a0 ::
         :: HOMO-LUMO gap              1.634795789840 eV    ::
         :: SCC energy               -11.149506534740 Eh    ::
         :: -> dispersion             -0.002655699498 Eh    ::
         :: repulsion energy           0.119205030196 Eh    ::

    * Orbital Energies and Occupations

         #    Occupation            Energy/Eh            Energy/eV
      -------------------------------------------------------------
         1        2.0000           -0.7985640             -21.7300
         2        2.0000           -0.7044479             -19.1690
         3        2.0000           -0.6590767             -17.9344
         4        2.0000           -0.6560992             -17.8534
         5        2.0000           -0.5805858             -15.7985
         6        2.0000           -0.5287929             -14.3892
         7        2.0000           -0.5188525             -14.1187
         8        2.0000           -0.5169774             -14.0677
         9        2.0000           -0.4813427             -13.0980
        10        2.0000           -0.4546307             -12.3711
        11        1.0000           -0.4214329             -11.4678 (HOMO)
        12                         -0.3613552              -9.8330 (LUMO)
        13                         -0.3572511              -9.7213
        14                         -0.1751725              -4.7667
        15                         -0.1167276              -3.1763
        16                         -0.0298830              -0.8132
        17                          0.0462522               1.2586
        18                          0.1364058               3.7118
        19                          0.1533568               4.1730
        20                          0.4015709              10.9273
      -------------------------------------------------------------
                  HL-Gap            0.0600777 Eh            1.6348 eV

     #   Z        covCN         q      C6AA      Î±(0)
     1   6 C      2.330    -0.018    29.800     8.872
     2   7 N      3.552     0.055    20.284     6.689
     3   6 C      3.068    -0.075    29.795     8.950
     4   6 C      3.763     0.114    18.761     6.174
     5   6 C      3.067    -0.075    29.796     8.951

Wiberg/Mayer (AO) data.
largest (>0.10) Wiberg bond orders for each atom
          total WBO             WBO to atom ...

molecular dipole:
                 x           y           z       tot (Debye)
 q only:        0.151      -0.091       0.158
   full:        0.315      -0.118       0.187       0.978

 projected vibrational frequencies (cm-1)
eigval :       -0.00    -0.00    -0.00     0.00     0.00     0.00
eigval :     -280.58   510.87   686.39   712.77   880.43   971.18
eigval :      995.22  1290.63  1382.64

   temp. (K)  partition function   enthalpy   heat capacity  entropy
                                   cal/mol     cal/K/mol   cal/K/mol   J/K/mol
  10.00  VIB   1.00                    0.000      0.000     -0.000
         ROT   136.                   29.809      2.981     12.742
         INT   136.                   29.809      2.981     12.742
         TR   0.290E+25               49.681      4.968     21.419
         TOT                          79.4904     7.9490    34.1615   142.9316

       T/K    H(0)-H(T)+PV         H(T)/Eh          T*S/Eh         G(T)/Eh
   ------------------------------------------------------------------------
    298.15    0.437536E-02    0.213024E-01    0.298313E-01   -0.852890E-02
    120.00    0.152685E-02    0.184539E-01    0.103168E-01    0.813714E-02
    100.00    0.126855E-02    0.181956E-01    0.836200E-02    0.983364E-02
     80.00    0.101367E-02    0.179408E-01    0.646220E-02    0.114786E-01
     60.00    0.760068E-03    0.176872E-01    0.462785E-02    0.130593E-01
     40.00    0.506704E-03    0.174338E-01    0.287983E-02    0.145540E-01
     20.00    0.253352E-03    0.171804E-01    0.126436E-02    0.159161E-01
     10.00    0.126676E-03    0.170538E-01    0.544398E-03    0.165094E-01 (used)
   ------------------------------------------------------------------------

         :::::::::::::::::::::::::::::::::::::::::::::::::::::
         ::                  THERMODYNAMIC                  ::
         :::::::::::::::::::::::::::::::::::::::::::::::::::::
         :: total free energy         -11.013792122052 Eh   ::
         ::.................................................::
         :: total energy              -11.030301483891 Eh   ::
         :: zero point energy           0.016927083586 Eh   ::
         :: G(RRHO) w/o ZPVE           -0.000417721747 Eh   ::
         :: G(RRHO) contrib.            0.016509361839 Eh   ::
         :::::::::::::::::::::::::::::::::::::::::::::::::::::

           -------------------------------------------------
          | TOTAL ENERGY              -11.030301483891 Eh   |
          | TOTAL ENTHALPY            -11.013247724290 Eh   |
          | TOTAL FREE ENERGY         -11.013792122052 Eh   |
          | GRADIENT NORM               0.000517248564 Eh/Î± |
          | HOMO-LUMO GAP               1.634797828114 eV   |
           -------------------------------------------------

 * finished run on 2020/05/12 at 11:44:17.776
