   * xtb version 6.2.2 (9d81278992624c895f80dd42a50cac0aa55982e2) compiled by '@Darwin' on 04/03/2020
          program call               : xtb --input H2C1N2_0_S_0.input H2C1N2_0_S_0.xyz --ohess --molden --namespace H2C1N2_0_S_0 output.out
          number of atoms            :                     5
          number of electrons        :                    16
          charge                     :                     0
          spin                       :                   0.0

   ID    Z sym.   atoms
    1    7 N      1, 3
    2    6 C      2
    3    1 H      4, 5

          :  Hamiltonian                  GFN2-xTB          :
 * total energy  :    -8.6157372 Eh     change        0.1772733E-09 Eh
 * total energy  :    -8.6284916 Eh     change       -0.1275439E-01 Eh
 * total energy  :    -8.6598160 Eh     change       -0.3132437E-01 Eh
 * total energy  :    -8.7682158 Eh     change       -0.1083997E+00 Eh
 * total energy  :    -8.8006910 Eh     change       -0.3247529E-01 Eh
 * total energy  :    -8.8167258 Eh     change       -0.1603472E-01 Eh
 * total energy  :    -8.8257597 Eh     change       -0.9033886E-02 Eh
 * total energy  :    -8.8273610 Eh     change       -0.1601354E-02 Eh
 * total energy  :    -8.8277387 Eh     change       -0.3777211E-03 Eh
 * total energy  :    -8.8277476 Eh     change       -0.8913409E-05 Eh
 * total energy  :    -8.8277492 Eh     change       -0.1523291E-05 Eh
   *** GEOMETRY OPTIMIZATION CONVERGED AFTER 11 ITERATIONS ***

 final structure:
================
5
 xtb: 6.2.2 (9d81278992624c895f80dd42a50cac0aa55982e2)
N        -0.00741402890874   -0.31554493114072    0.01858362805008
C         0.72842495408236    0.99913102541370   -0.05220495766820
N        -0.54416293074946    1.02532941539313   -0.06573461416901
H        -0.09649219122925   -0.80379817999301    0.90666252226610
H        -0.08035580319491   -0.90511832967310   -0.80730557847896

          :  Hamiltonian                  GFN2-xTB          :
         :: gradient norm              0.001012025608 Eh/a0 ::
         :: HOMO-LUMO gap              3.962804232869 eV    ::
         :: SCC energy                -8.916887614662 Eh    ::
         :: -> dispersion             -0.001444492498 Eh    ::
         :: repulsion energy           0.089138426819 Eh    ::

    * Orbital Energies and Occupations

         #    Occupation            Energy/Eh            Energy/eV
      -------------------------------------------------------------
         1        2.0000           -0.7159888             -19.4830
         2        2.0000           -0.6498617             -17.6836
         3        2.0000           -0.6062266             -16.4963
         4        2.0000           -0.5748292             -15.6419
         5        2.0000           -0.5223813             -14.2147
         6        2.0000           -0.4308604             -11.7243
         7        2.0000           -0.4277613             -11.6400
         8        2.0000           -0.3796550             -10.3309 (HOMO)
         9                         -0.2340247              -6.3681 (LUMO)
        10                         -0.1013559              -2.7580
        11                         -0.1010023              -2.7484
        12                          0.0917580               2.4969
        13                          0.1606169               4.3706
        14                          0.4686396              12.7523
      -------------------------------------------------------------
                  HL-Gap            0.1456303 Eh            3.9628 eV

     #   Z        covCN         q      C6AA      Î±(0)
     1   7 N      3.597     0.003    21.197     6.838
     2   6 C      1.813    -0.127    34.760     9.527
     3   7 N      1.885    -0.206    26.306     7.603
     4   1 H      0.860     0.165     1.305     1.789
     5   1 H      0.860     0.165     1.305     1.789

Wiberg/Mayer (AO) data.
largest (>0.10) Wiberg bond orders for each atom
          total WBO             WBO to atom ...

molecular dipole:
                 x           y           z       tot (Debye)
 q only:       -0.019      -1.173       0.069
   full:       -0.257      -1.728       0.100       4.447

 projected vibrational frequencies (cm-1)
eigval :       -0.00    -0.00    -0.00     0.00     0.00     0.00
eigval :      788.12   824.94   854.74  1000.62  1042.08  1470.28
eigval :     1710.32  3300.48  3307.84

   temp. (K)  partition function   enthalpy   heat capacity  entropy
                                   cal/mol     cal/K/mol   cal/K/mol   J/K/mol
  10.00  VIB   1.00                    0.000      0.000     -0.000
         ROT   41.5                   29.809      2.981     10.384
         INT   41.5                   29.809      2.981     10.383
         TR   0.162E+25               49.681      4.968     20.259
         TOT                          79.4904     7.9490    30.6429   128.2099

       T/K    H(0)-H(T)+PV         H(T)/Eh          T*S/Eh         G(T)/Eh
   ------------------------------------------------------------------------
    298.15    0.406990E-02    0.366464E-01    0.277404E-01    0.890601E-02
    120.00    0.152077E-02    0.340973E-01    0.963684E-02    0.244604E-01
    100.00    0.126685E-02    0.338433E-01    0.779931E-02    0.260440E-01
     80.00    0.101341E-02    0.335899E-01    0.601330E-02    0.275766E-01
     60.00    0.760056E-03    0.333365E-01    0.429138E-02    0.290452E-01
     40.00    0.506704E-03    0.330832E-01    0.265553E-02    0.304277E-01
     20.00    0.253352E-03    0.328298E-01    0.115221E-02    0.316776E-01
     10.00    0.126676E-03    0.327032E-01    0.488326E-03    0.322148E-01 (used)
   ------------------------------------------------------------------------

         :::::::::::::::::::::::::::::::::::::::::::::::::::::
         ::                  THERMODYNAMIC                  ::
         :::::::::::::::::::::::::::::::::::::::::::::::::::::
         :: total free energy          -8.795534332481 Eh   ::
         ::.................................................::
         :: total energy               -8.827749169179 Eh   ::
         :: zero point energy           0.032576486249 Eh   ::
         :: G(RRHO) w/o ZPVE           -0.000361649551 Eh   ::
         :: G(RRHO) contrib.            0.032214836698 Eh   ::
         :::::::::::::::::::::::::::::::::::::::::::::::::::::

           -------------------------------------------------
          | TOTAL ENERGY               -8.827749169179 Eh   |
          | TOTAL ENTHALPY             -8.795046006915 Eh   |
          | TOTAL FREE ENERGY          -8.795534332481 Eh   |
          | GRADIENT NORM               0.001012067490 Eh/Î± |
          | HOMO-LUMO GAP               3.962803092131 eV   |
           -------------------------------------------------

 * finished run on 2020/05/12 at 11:45:20.031
