   * xtb version 6.2.2 (9d81278992624c895f80dd42a50cac0aa55982e2) compiled by '@Darwin' on 04/03/2020
          program call               : xtb --input C4N1_21_S_3.input C4N1_21_S_3.xyz --ohess --molden --namespace C4N1_21_S_3 output.out
          number of atoms            :                     5
          number of electrons        :                    21
          charge                     :                     0
          spin                       :                   1.5

   ID    Z sym.   atoms
    1    6 C      1, 2, 4, 5
    2    7 N      3

          :  Hamiltonian                  GFN2-xTB          :
 * total energy  :   -10.8820262 Eh     change       -0.6975966E-09 Eh
 * total energy  :   -10.9826153 Eh     change       -0.1005891E+00 Eh
 * total energy  :   -11.0018901 Eh     change       -0.1927477E-01 Eh
 * total energy  :   -11.0340095 Eh     change       -0.3211943E-01 Eh
 * total energy  :   -11.0383939 Eh     change       -0.4384404E-02 Eh
 * total energy  :   -11.0430532 Eh     change       -0.4659230E-02 Eh
 * total energy  :   -11.0442227 Eh     change       -0.1169566E-02 Eh
 * total energy  :   -11.0444765 Eh     change       -0.2537760E-03 Eh
 * total energy  :   -11.0445129 Eh     change       -0.3642042E-04 Eh
 * total energy  :   -11.0445183 Eh     change       -0.5412087E-05 Eh
 * total energy  :   -11.0445234 Eh     change       -0.5033822E-05 Eh
 * total energy  :   -11.0445411 Eh     change       -0.1778721E-04 Eh
 * total energy  :   -11.0445426 Eh     change       -0.1420029E-05 Eh
 * total energy  :   -11.0445447 Eh     change       -0.2108178E-05 Eh
   *** GEOMETRY OPTIMIZATION CONVERGED AFTER 14 ITERATIONS ***

 final structure:
================
5
 xtb: 6.2.2 (9d81278992624c895f80dd42a50cac0aa55982e2)
C        -1.46833279812402    0.73454098098765   -0.12608924626548
C        -0.17710336641092   -0.01705001880609   -0.19472810955501
N         1.01352334276528   -0.05373026003614   -0.57925948344700
C        -1.56977042733549   -0.54835654473227   -0.31784975948845
C         2.20168224910515   -0.11540315741315   -0.79528040124406

          :  Hamiltonian                  GFN2-xTB          :
         :: gradient norm              0.000375559931 Eh/a0 ::
         :: HOMO-LUMO gap              2.155616672649 eV    ::
         :: SCC energy               -11.250868176850 Eh    ::
         :: -> dispersion             -0.002785614868 Eh    ::
         :: repulsion energy           0.206323610972 Eh    ::

    * Orbital Energies and Occupations

         #    Occupation            Energy/Eh            Energy/eV
      -------------------------------------------------------------
         1        2.0000           -0.7222591             -19.6537
         2        2.0000           -0.7059077             -19.2087
         3        2.0000           -0.6619375             -18.0122
         4        2.0000           -0.5905505             -16.0697
         5        2.0000           -0.5715095             -15.5516
         6        2.0000           -0.5574180             -15.1681
         7        2.0000           -0.5260743             -14.3152
         8        2.0000           -0.5006570             -13.6236
         9        2.0000           -0.4584055             -12.4738
        10        1.0000           -0.4169094             -11.3447
        11        1.0000           -0.4123426             -11.2204
        12        1.0000           -0.3517895              -9.5727 (HOMO)
        13                         -0.2725722              -7.4171 (LUMO)
        14                         -0.2578609              -7.0168
        15                         -0.2030059              -5.5241
        16                         -0.0321048              -0.8736
        17                         -0.0135409              -0.3685
        18                          0.3659769               9.9587
        19                          0.5549506              15.1010
        20                          1.0192817              27.7361
      -------------------------------------------------------------
                  HL-Gap            0.0792173 Eh            2.1556 eV

     #   Z        covCN         q      C6AA      Î±(0)
     1   6 C      1.958    -0.017    31.535     9.069
     2   6 C      2.873     0.112    25.533     8.283
     3   7 N      1.821     0.060    20.855     6.767
     4   6 C      1.958    -0.017    31.535     9.069
     5   6 C      0.918    -0.137    39.876    10.572

Wiberg/Mayer (AO) data.
largest (>0.10) Wiberg bond orders for each atom
          total WBO             WBO to atom ...

molecular dipole:
                 x           y           z       tot (Debye)
 q only:       -0.392       0.014       0.114
   full:       -0.729       0.028       0.197       1.920

 projected vibrational frequencies (cm-1)
eigval :       -0.00    -0.00    -0.00    -0.00     0.00     0.00
eigval :      145.17   151.38   316.01   390.95   555.03   764.64
eigval :     1469.60  1756.98  1917.75
Molecule has the following symmetry elements: (sigma)
It seems to be the Cs point group

   temp. (K)  partition function   enthalpy   heat capacity  entropy
                                   cal/mol     cal/K/mol   cal/K/mol   J/K/mol
  10.00  VIB   1.00                    0.000      0.000     -0.025
         ROT   210.                   29.809      2.981     13.608
         INT   210.                   29.809      2.981     13.583
         TR   0.290E+25               49.681      4.968     21.419
         TOT                          79.4904     7.9490    35.0024   146.4500

       T/K    H(0)-H(T)+PV         H(T)/Eh          T*S/Eh         G(T)/Eh
   ------------------------------------------------------------------------
    298.15    0.607219E-02    0.230844E-01    0.335010E-01   -0.104166E-01
    120.00    0.184851E-02    0.188607E-01    0.109590E-01    0.790179E-02
    100.00    0.147117E-02    0.184834E-01    0.878924E-02    0.969416E-02
     80.00    0.112099E-02    0.181332E-01    0.671954E-02    0.114137E-01
     60.00    0.800739E-03    0.178130E-01    0.476393E-02    0.130490E-01
     40.00    0.513304E-03    0.175255E-01    0.294349E-02    0.145820E-01
     20.00    0.253384E-03    0.172656E-01    0.129177E-02    0.159738E-01
     10.00    0.126676E-03    0.171389E-01    0.557799E-03    0.165811E-01 (used)
   ------------------------------------------------------------------------

         :::::::::::::::::::::::::::::::::::::::::::::::::::::
         ::                  THERMODYNAMIC                  ::
         :::::::::::::::::::::::::::::::::::::::::::::::::::::
         :: total free energy         -11.027963568410 Eh   ::
         ::.................................................::
         :: total energy              -11.044544676038 Eh   ::
         :: zero point energy           0.017012230340 Eh   ::
         :: G(RRHO) w/o ZPVE           -0.000431122713 Eh   ::
         :: G(RRHO) contrib.            0.016581107628 Eh   ::
         :::::::::::::::::::::::::::::::::::::::::::::::::::::

           -------------------------------------------------
          | TOTAL ENERGY              -11.044544676038 Eh   |
          | TOTAL ENTHALPY            -11.027405769681 Eh   |
          | TOTAL FREE ENERGY         -11.027963568410 Eh   |
          | GRADIENT NORM               0.000375574481 Eh/Î± |
          | HOMO-LUMO GAP               2.155612491650 eV   |
           -------------------------------------------------

 * finished run on 2020/05/12 at 11:44:07.471
