   * xtb version 6.2.2 (9d81278992624c895f80dd42a50cac0aa55982e2) compiled by '@Darwin' on 04/03/2020
          program call               : xtb --input H1C4_4_S_1.input H1C4_4_S_1.xyz --ohess --molden --namespace H1C4_4_S_1 output.out
          number of atoms            :                     5
          number of electrons        :                    17
          charge                     :                     0
          spin                       :                   0.5

   ID    Z sym.   atoms
    1    6 C      1-4
    2    1 H      5

          :  Hamiltonian                  GFN2-xTB          :
 * total energy  :    -8.5903416 Eh     change        0.3721627E-09 Eh
 * total energy  :    -8.6531693 Eh     change       -0.6282772E-01 Eh
 * total energy  :    -8.6541804 Eh     change       -0.1011095E-02 Eh
 * total energy  :    -8.7252013 Eh     change       -0.7102083E-01 Eh
 * total energy  :    -8.7291618 Eh     change       -0.3960532E-02 Eh
 * total energy  :    -8.7392090 Eh     change       -0.1004717E-01 Eh
 * total energy  :    -8.7396699 Eh     change       -0.4609217E-03 Eh
 * total energy  :    -8.7429096 Eh     change       -0.3239719E-02 Eh
 * total energy  :    -8.7437180 Eh     change       -0.8083456E-03 Eh
 * total energy  :    -8.7446289 Eh     change       -0.9109573E-03 Eh
 * total energy  :    -8.7969813 Eh     change       -0.1389005E-02 Eh
 * total energy  :    -8.7974084 Eh     change       -0.4270149E-03 Eh
 * total energy  :    -8.7981101 Eh     change       -0.7017146E-03 Eh
 * total energy  :    -8.7984018 Eh     change       -0.2916750E-03 Eh
 * total energy  :    -8.7985296 Eh     change       -0.1278302E-03 Eh
 * total energy  :    -8.7985946 Eh     change       -0.6505634E-04 Eh
 * total energy  :    -8.7985975 Eh     change       -0.2856583E-05 Eh
 * total energy  :    -8.7986032 Eh     change       -0.5660809E-05 Eh
 * total energy  :    -8.7986056 Eh     change       -0.2436853E-05 Eh
   *** GEOMETRY OPTIMIZATION CONVERGED AFTER 34 ITERATIONS ***

 final structure:
================
5
 xtb: 6.2.2 (9d81278992624c895f80dd42a50cac0aa55982e2)
C         1.28639570508253   -0.11511419757561    0.04531352421627
C         0.08200632429330   -0.05191613086042    0.01351795130220
C        -2.41889858108567    0.38876887330607   -0.14239229659320
C        -1.27905882074254   -0.00376495747500   -0.00819830973769
H         2.32955537245243   -0.21797358739508    0.09175913081234

          :  Hamiltonian                  GFN2-xTB          :
         :: gradient norm              0.000945220497 Eh/a0 ::
         :: HOMO-LUMO gap              4.287007439487 eV    ::
         :: SCC energy                -9.071566336403 Eh    ::
         :: -> dispersion             -0.002148226838 Eh    ::
         :: repulsion energy           0.272961295502 Eh    ::

    * Orbital Energies and Occupations

         #    Occupation            Energy/Eh            Energy/eV
      -------------------------------------------------------------
         1        2.0000           -0.6407634             -17.4361
         2        2.0000           -0.6294319             -17.1277
         3        2.0000           -0.5769988             -15.7009
         4        2.0000           -0.5174060             -14.0793
         5        2.0000           -0.4807980             -13.0832
         6        2.0000           -0.4806180             -13.0783
         7        2.0000           -0.4210371             -11.4570
         8        1.9998           -0.4168483             -11.3430
         9        1.0002           -0.4002616             -10.8917 (HOMO)
        10                         -0.2427171              -6.6047 (LUMO)
        11                         -0.2398408              -6.5264
        12                         -0.0957015              -2.6042
        13                         -0.0841618              -2.2902
        14                          0.0731842               1.9914
        15                          0.3442501               9.3675
        16                          1.0753609              29.2621
        17                          1.5190538              41.3356
      -------------------------------------------------------------
                  HL-Gap            0.1575445 Eh            4.2870 eV

     #   Z        covCN         q      C6AA      Î±(0)
     1   6 C      1.910    -0.070    33.017     9.280
     2   6 C      1.963     0.029    30.335     8.894
     3   6 C      0.983    -0.078    38.368    10.405
     4   6 C      1.963     0.021    30.524     8.922
     5   1 H      0.928     0.098     1.801     2.099

Wiberg/Mayer (AO) data.
largest (>0.10) Wiberg bond orders for each atom
          total WBO             WBO to atom ...

molecular dipole:
                 x           y           z       tot (Debye)
 q only:        0.570      -0.085       0.032
   full:        0.655      -0.181       0.065       1.734

 projected vibrational frequencies (cm-1)
eigval :       -0.00    -0.00    -0.00     0.00     0.00     0.00
eigval :      181.89   287.03   361.49   588.49   615.73   948.52
eigval :     2054.21  2176.88  3389.40

   temp. (K)  partition function   enthalpy   heat capacity  entropy
                                   cal/mol     cal/K/mol   cal/K/mol   J/K/mol
  10.00  VIB   1.00                    0.000      0.000     -0.009
         ROT   34.0                   29.809      2.981      9.986
         INT   34.0                   29.809      2.981      9.978
         TR   0.204E+25               49.681      4.968     20.719
         TOT                          79.4904     7.9490    30.6967   128.4350

       T/K    H(0)-H(T)+PV         H(T)/Eh          T*S/Eh         G(T)/Eh
   ------------------------------------------------------------------------
    298.15    0.551549E-02    0.296723E-01    0.302235E-01   -0.551138E-03
    120.00    0.169490E-02    0.258517E-01    0.988708E-02    0.159647E-01
    100.00    0.136353E-02    0.255204E-01    0.793758E-02    0.175828E-01
     80.00    0.105623E-02    0.252131E-01    0.607623E-02    0.191368E-01
     60.00    0.772394E-03    0.249292E-01    0.431265E-02    0.206166E-01
     40.00    0.507947E-03    0.246648E-01    0.266100E-02    0.220038E-01
     20.00    0.253354E-03    0.244102E-01    0.115408E-02    0.232561E-01
     10.00    0.126676E-03    0.242835E-01    0.489183E-03    0.237943E-01 (used)
   ------------------------------------------------------------------------

         :::::::::::::::::::::::::::::::::::::::::::::::::::::
         ::                  THERMODYNAMIC                  ::
         :::::::::::::::::::::::::::::::::::::::::::::::::::::
         :: total free energy          -8.774811254156 Eh   ::
         ::.................................................::
         :: total energy               -8.798605593610 Eh   ::
         :: zero point energy           0.024156846337 Eh   ::
         :: G(RRHO) w/o ZPVE           -0.000362506882 Eh   ::
         :: G(RRHO) contrib.            0.023794339455 Eh   ::
         :::::::::::::::::::::::::::::::::::::::::::::::::::::

           -------------------------------------------------
          | TOTAL ENERGY               -8.798605593610 Eh   |
          | TOTAL ENTHALPY             -8.774322071257 Eh   |
          | TOTAL FREE ENERGY          -8.774811254156 Eh   |
          | GRADIENT NORM               0.000945139880 Eh/Î± |
          | HOMO-LUMO GAP               4.287005300833 eV   |
           -------------------------------------------------

 * finished run on 2020/05/12 at 11:45:09.625
