   * xtb version 6.2.2 (9d81278992624c895f80dd42a50cac0aa55982e2) compiled by '@Darwin' on 04/03/2020
          program call               : xtb --input H1C3N1_3_S_2.input H1C3N1_3_S_2.xyz --ohess --molden --namespace H1C3N1_3_S_2 output.out
          number of atoms            :                     5
          number of electrons        :                    18
          charge                     :                     0
          spin                       :                   1.0

   ID    Z sym.   atoms
    1    6 C      1, 3, 4
    2    7 N      2
    3    1 H      5

          :  Hamiltonian                  GFN2-xTB          :
 * total energy  :    -9.3295444 Eh     change       -0.2511076E-09 Eh
 * total energy  :    -9.3632585 Eh     change       -0.3371409E-01 Eh
 * total energy  :    -9.3889576 Eh     change       -0.2569918E-01 Eh
 * total energy  :    -9.4024076 Eh     change       -0.1344996E-01 Eh
 * total energy  :    -9.4107251 Eh     change       -0.8317453E-02 Eh
 * total energy  :    -9.4161860 Eh     change       -0.5460940E-02 Eh
 * total energy  :    -9.4305064 Eh     change       -0.1432045E-01 Eh
 * total energy  :    -9.4354054 Eh     change       -0.4898947E-02 Eh
 * total energy  :    -9.4493404 Eh     change       -0.1393502E-01 Eh
 * total energy  :    -9.4604262 Eh     change       -0.1108579E-01 Eh
 * total energy  :    -9.4849401 Eh     change       -0.1552972E-02 Eh
 * total energy  :    -9.4856401 Eh     change       -0.6999682E-03 Eh
 * total energy  :    -9.4864550 Eh     change       -0.8148938E-03 Eh
 * total energy  :    -9.4871063 Eh     change       -0.6513337E-03 Eh
 * total energy  :    -9.4873290 Eh     change       -0.2226401E-03 Eh
 * total energy  :    -9.4873672 Eh     change       -0.3819645E-04 Eh
 * total energy  :    -9.4873920 Eh     change       -0.2485366E-04 Eh
 * total energy  :    -9.4874041 Eh     change       -0.1209162E-04 Eh
 * total energy  :    -9.4874071 Eh     change       -0.3010228E-05 Eh
   *** GEOMETRY OPTIMIZATION CONVERGED AFTER 25 ITERATIONS ***

 final structure:
================
5
 xtb: 6.2.2 (9d81278992624c895f80dd42a50cac0aa55982e2)
C         0.66987510968869    0.29234063607131    0.00719833043629
N        -0.59197970150254   -0.20526805321553   -0.04930179067004
C        -1.39048528154493   -1.20821887615025   -0.00953702064931
C        -0.34360485615845    1.22977573318329    0.02794513791662
H         1.65619572951723   -0.10862943988883    0.02369534296645

          :  Hamiltonian                  GFN2-xTB          :
         :: gradient norm              0.000583351118 Eh/a0 ::
         :: HOMO-LUMO gap              0.649094033413 eV    ::
         :: SCC energy                -9.615064444177 Eh    ::
         :: -> dispersion             -0.002216554739 Eh    ::
         :: repulsion energy           0.127657248786 Eh    ::

    * Orbital Energies and Occupations

         #    Occupation            Energy/Eh            Energy/eV
      -------------------------------------------------------------
         1        2.0000           -0.7428570             -20.2142
         2        2.0000           -0.6807547             -18.5243
         3        2.0000           -0.6314068             -17.1815
         4        2.0000           -0.5856598             -15.9366
         5        2.0000           -0.5811152             -15.8129
         6        2.0000           -0.5294823             -14.4079
         7        2.0000           -0.4550858             -12.3835
         8        2.0000           -0.4496786             -12.2364
         9        1.0000           -0.4201855             -11.4338
        10        1.0000           -0.3204001              -8.7185 (HOMO)
        11        0.0000           -0.2965464              -8.0694 (LUMO)
        12                         -0.2481378              -6.7522
        13                         -0.0857346              -2.3330
        14                          0.0172971               0.4707
        15                          0.0729787               1.9859
        16                          0.4869261              13.2499
        17                          0.6418112              17.4646
      -------------------------------------------------------------
                  HL-Gap            0.0238537 Eh            0.6491 eV

     #   Z        covCN         q      C6AA      Î±(0)
     1   6 C      2.819     0.080    26.198     8.387
     2   7 N      2.727     0.156    18.608     6.407
     3   6 C      0.912    -0.204    42.254    10.879
     4   6 C      1.888    -0.120    34.462     9.481
     5   1 H      0.927     0.087     1.906     2.159

Wiberg/Mayer (AO) data.
largest (>0.10) Wiberg bond orders for each atom
          total WBO             WBO to atom ...

molecular dipole:
                 x           y           z       tot (Debye)
 q only:        0.814       0.154      -0.012
   full:        1.399      -0.042      -0.045       3.559

 projected vibrational frequencies (cm-1)
eigval :       -0.00    -0.00     0.00     0.00     0.00     0.00
eigval :       86.32   376.23   575.00   667.91   840.43  1012.06
eigval :     1423.35  1569.62  3203.78

   temp. (K)  partition function   enthalpy   heat capacity  entropy
                                   cal/mol     cal/K/mol   cal/K/mol   J/K/mol
  10.00  VIB   1.00                    0.001      0.001     -0.039
         ROT   107.                   29.809      2.981     12.259
         INT   107.                   29.810      2.982     12.220
         TR   0.217E+25               49.681      4.968     20.838
         TOT                          79.4914     7.9503    33.0580   138.3145

       T/K    H(0)-H(T)+PV         H(T)/Eh          T*S/Eh         G(T)/Eh
   ------------------------------------------------------------------------
    298.15    0.528483E-02    0.275077E-01    0.313249E-01   -0.381722E-02
    120.00    0.175971E-02    0.239825E-01    0.105182E-01    0.134644E-01
    100.00    0.143506E-02    0.236579E-01    0.847174E-02    0.151861E-01
     80.00    0.112113E-02    0.233440E-01    0.649943E-02    0.168445E-01
     60.00    0.817065E-03    0.230399E-01    0.461390E-02    0.184260E-01
     40.00    0.525164E-03    0.227480E-01    0.284020E-02    0.199078E-01
     20.00    0.254144E-03    0.224770E-01    0.123223E-02    0.212447E-01
     10.00    0.126678E-03    0.223495E-01    0.526812E-03    0.218227E-01 (used)
   ------------------------------------------------------------------------

         :::::::::::::::::::::::::::::::::::::::::::::::::::::
         ::                  THERMODYNAMIC                  ::
         :::::::::::::::::::::::::::::::::::::::::::::::::::::
         :: total free energy          -9.465584427741 Eh   ::
         ::.................................................::
         :: total energy               -9.487407119639 Eh   ::
         :: zero point energy           0.022222826310 Eh   ::
         :: G(RRHO) w/o ZPVE           -0.000400134411 Eh   ::
         :: G(RRHO) contrib.            0.021822691898 Eh   ::
         :::::::::::::::::::::::::::::::::::::::::::::::::::::

           -------------------------------------------------
          | TOTAL ENERGY               -9.487407119639 Eh   |
          | TOTAL ENTHALPY             -9.465057615726 Eh   |
          | TOTAL FREE ENERGY          -9.465584427741 Eh   |
          | GRADIENT NORM               0.000583372276 Eh/Î± |
          | HOMO-LUMO GAP               0.649091030463 eV   |
           -------------------------------------------------

 * finished run on 2020/05/12 at 11:44:51.541
