   * xtb version 6.2.2 (9d81278992624c895f80dd42a50cac0aa55982e2) compiled by '@Darwin' on 04/03/2020
          program call               : xtb --input C4N1_16_S_1.input C4N1_16_S_1.xyz --ohess --molden --namespace C4N1_16_S_1 output.out
          number of atoms            :                     5
          number of electrons        :                    21
          charge                     :                     0
          spin                       :                   0.5

   ID    Z sym.   atoms
    1    6 C      1, 3-5
    2    7 N      2

          :  Hamiltonian                  GFN2-xTB          :
 * total energy  :   -10.9221463 Eh     change        0.5385026E-09 Eh
 * total energy  :   -10.9877229 Eh     change       -0.6557663E-01 Eh
 * total energy  :   -10.9904256 Eh     change       -0.2702670E-02 Eh
 * total energy  :   -11.0270952 Eh     change       -0.3666964E-01 Eh
 * total energy  :   -11.0325042 Eh     change       -0.5409049E-02 Eh
 * total energy  :   -11.0272771 Eh     change        0.5227141E-02 Eh
 * total energy  :   -11.0410526 Eh     change       -0.1377553E-01 Eh
 * total energy  :   -11.0416958 Eh     change       -0.6432101E-03 Eh
 * total energy  :   -11.0425120 Eh     change       -0.8161821E-03 Eh
 * total energy  :   -11.0428873 Eh     change       -0.3752353E-03 Eh
 * total energy  :   -11.0432269 Eh     change       -0.3396402E-03 Eh
 * total energy  :   -11.0433081 Eh     change       -0.8122055E-04 Eh
 * total energy  :   -11.0433109 Eh     change       -0.2732502E-05 Eh
 * total energy  :   -11.0433209 Eh     change       -0.1002973E-04 Eh
 * total energy  :   -11.0433241 Eh     change       -0.3243766E-05 Eh
 * total energy  :   -11.0433266 Eh     change       -0.2445214E-05 Eh
   *** GEOMETRY OPTIMIZATION CONVERGED AFTER 16 ITERATIONS ***

 final structure:
================
5
 xtb: 6.2.2 (9d81278992624c895f80dd42a50cac0aa55982e2)
C        -0.47241540100355    0.79546925164393    0.04732474214530
N         0.72940403200375   -0.02833478562144    0.01914552569228
C        -0.53369924808557   -0.75156752612682    0.09245040330478
C         1.93736721742921   -0.07982902564848   -0.10734075544843
C        -1.66065660034384    0.06426208575281   -0.05157891569393

          :  Hamiltonian                  GFN2-xTB          :
         :: gradient norm              0.000688406883 Eh/a0 ::
         :: HOMO-LUMO gap              1.265076267458 eV    ::
         :: SCC energy               -11.202395155698 Eh    ::
         :: -> dispersion             -0.002875964617 Eh    ::
         :: repulsion energy           0.159068627079 Eh    ::

    * Orbital Energies and Occupations

         #    Occupation            Energy/Eh            Energy/eV
      -------------------------------------------------------------
         1        2.0000           -0.7666263             -20.8610
         2        2.0000           -0.7212752             -19.6269
         3        2.0000           -0.6666617             -18.1408
         4        2.0000           -0.6436418             -17.5144
         5        2.0000           -0.6066312             -16.5073
         6        2.0000           -0.5706959             -15.5294
         7        2.0000           -0.5006155             -13.6224
         8        2.0000           -0.4903793             -13.3439
         9        2.0000           -0.4700625             -12.7911
        10        2.0000           -0.4400009             -11.9730
        11        1.0000           -0.4069273             -11.0731 (HOMO)
        12                         -0.3604365              -9.8080 (LUMO)
        13                         -0.3196623              -8.6985
        14                         -0.2722915              -7.4094
        15                         -0.2286355              -6.2215
        16                         -0.0490868              -1.3357
        17                          0.0738806               2.0104
        18                          0.1718788               4.6771
        19                          0.3850745              10.4784
        20                          0.6871207              18.6975
      -------------------------------------------------------------
                  HL-Gap            0.0464908 Eh            1.2651 eV

     #   Z        covCN         q      C6AA      Î±(0)
     1   6 C      2.861     0.042    27.045     8.524
     2   7 N      2.731     0.146    18.780     6.436
     3   6 C      2.861     0.042    27.045     8.524
     4   6 C      0.913    -0.124    39.391    10.505
     5   6 C      1.967    -0.107    34.023     9.420

Wiberg/Mayer (AO) data.
largest (>0.10) Wiberg bond orders for each atom
          total WBO             WBO to atom ...

molecular dipole:
                 x           y           z       tot (Debye)
 q only:        0.002       0.001       0.052
   full:        0.254      -0.007       0.106       0.700

 projected vibrational frequencies (cm-1)
eigval :       -0.00    -0.00     0.00     0.00     0.00     0.00
eigval :     -179.94   106.49   307.28   453.05   677.38   791.05
eigval :     1031.40  1463.56  1751.40

   temp. (K)  partition function   enthalpy   heat capacity  entropy
                                   cal/mol     cal/K/mol   cal/K/mol   J/K/mol
  10.00  VIB   1.00                    0.000      0.000     -0.029
         ROT   178.                   29.809      2.981     13.276
         INT   178.                   29.809      2.981     13.247
         TR   0.290E+25               49.681      4.968     21.419
         TOT                          79.4905     7.9491    34.6666   145.0450

       T/K    H(0)-H(T)+PV         H(T)/Eh          T*S/Eh         G(T)/Eh
   ------------------------------------------------------------------------
    298.15    0.541467E-02    0.204087E-01    0.322110E-01   -0.118023E-01
    120.00    0.175416E-02    0.167482E-01    0.107832E-01    0.596502E-02
    100.00    0.142081E-02    0.164148E-01    0.868331E-02    0.773153E-02
     80.00    0.110345E-02    0.160975E-01    0.666444E-02    0.943303E-02
     60.00    0.801916E-03    0.157959E-01    0.473891E-02    0.110570E-01
     40.00    0.517490E-03    0.155115E-01    0.292910E-02    0.125824E-01
     20.00    0.253581E-03    0.152476E-01    0.128173E-02    0.139659E-01
     10.00    0.126676E-03    0.151207E-01    0.552447E-03    0.145683E-01 (used)
   ------------------------------------------------------------------------

         :::::::::::::::::::::::::::::::::::::::::::::::::::::
         ::                  THERMODYNAMIC                  ::
         :::::::::::::::::::::::::::::::::::::::::::::::::::::
         :: total free energy         -11.028758314835 Eh   ::
         ::.................................................::
         :: total energy              -11.043326573571 Eh   ::
         :: zero point energy           0.014994029924 Eh   ::
         :: G(RRHO) w/o ZPVE           -0.000425771189 Eh   ::
         :: G(RRHO) contrib.            0.014568258735 Eh   ::
         :::::::::::::::::::::::::::::::::::::::::::::::::::::

           -------------------------------------------------
          | TOTAL ENERGY              -11.043326573571 Eh   |
          | TOTAL ENTHALPY            -11.028205867523 Eh   |
          | TOTAL FREE ENERGY         -11.028758314835 Eh   |
          | GRADIENT NORM               0.000688348392 Eh/Î± |
          | HOMO-LUMO GAP               1.265078364116 eV   |
           -------------------------------------------------

 * finished run on 2020/05/12 at 11:44:04.988
