   * xtb version 6.2.2 (9d81278992624c895f80dd42a50cac0aa55982e2) compiled by '@Darwin' on 04/03/2020
          program call               : xtb --input H1C4_6_S_1.input H1C4_6_S_1.xyz --ohess --molden --namespace H1C4_6_S_1 output.out
          number of atoms            :                     5
          number of electrons        :                    17
          charge                     :                     0
          spin                       :                   0.5

   ID    Z sym.   atoms
    1    6 C      1-4
    2    1 H      5

          :  Hamiltonian                  GFN2-xTB          :
 * total energy  :    -8.5966389 Eh     change        0.1913545E-09 Eh
 * total energy  :    -8.6649939 Eh     change       -0.6835507E-01 Eh
 * total energy  :    -8.6928346 Eh     change       -0.2784061E-01 Eh
 * total energy  :    -8.7144548 Eh     change       -0.2162024E-01 Eh
 * total energy  :    -8.7193824 Eh     change       -0.4927612E-02 Eh
 * total energy  :    -8.7254892 Eh     change       -0.6106831E-02 Eh
 * total energy  :    -8.7263688 Eh     change       -0.8795771E-03 Eh
 * total energy  :    -8.7270125 Eh     change       -0.6437302E-03 Eh
 * total energy  :    -8.7273480 Eh     change       -0.3354702E-03 Eh
 * total energy  :    -8.7275322 Eh     change       -0.1842012E-03 Eh
 * total energy  :    -8.7276835 Eh     change       -0.2883556E-04 Eh
 * total energy  :    -8.7277044 Eh     change       -0.2091057E-04 Eh
 * total energy  :    -8.7277158 Eh     change       -0.1139022E-04 Eh
 * total energy  :    -8.7277241 Eh     change       -0.8308447E-05 Eh
 * total energy  :    -8.7277379 Eh     change       -0.1377868E-04 Eh
 * total energy  :    -8.7277493 Eh     change       -0.1136235E-04 Eh
 * total energy  :    -8.7277579 Eh     change       -0.8588916E-05 Eh
 * total energy  :    -8.7277620 Eh     change       -0.4139597E-05 Eh
 * total energy  :    -8.7277628 Eh     change       -0.8196340E-06 Eh
   *** GEOMETRY OPTIMIZATION CONVERGED AFTER 22 ITERATIONS ***

 final structure:
================
5
 xtb: 6.2.2 (9d81278992624c895f80dd42a50cac0aa55982e2)
C         1.86658201920966   -0.41800167999594    0.01448430162086
C         0.66889817165895    0.04891757367554    0.01046906557042
C        -0.77341665924682   -0.02165784099824   -0.00553119772076
C        -0.29545739339976    1.22145865158823   -0.00576723167441
H        -1.46660713822203   -0.83071570426959   -0.01365493779611

          :  Hamiltonian                  GFN2-xTB          :
         :: gradient norm              0.000498241937 Eh/a0 ::
         :: HOMO-LUMO gap              2.511030566545 eV    ::
         :: SCC energy                -8.900357304705 Eh    ::
         :: -> dispersion             -0.002260809194 Eh    ::
         :: repulsion energy           0.172594411934 Eh    ::

    * Orbital Energies and Occupations

         #    Occupation            Energy/Eh            Energy/eV
      -------------------------------------------------------------
         1        2.0000           -0.7082107             -19.2714
         2        2.0000           -0.6604649             -17.9722
         3        2.0000           -0.6015221             -16.3683
         4        2.0000           -0.5564657             -15.1422
         5        2.0000           -0.5268412             -14.3361
         6        2.0000           -0.4967079             -13.5161
         7        2.0000           -0.4405860             -11.9890
         8        1.9999           -0.4353513             -11.8465
         9        1.0001           -0.4170144             -11.3475 (HOMO)
        10                         -0.3247358              -8.8365 (LUMO)
        11                         -0.2703035              -7.3553
        12                         -0.2077748              -5.6538
        13                         -0.0258454              -0.7033
        14                          0.0764738               2.0810
        15                          0.1149944               3.1292
        16                          0.6404624              17.4279
        17                          0.8088153              22.0090
      -------------------------------------------------------------
                  HL-Gap            0.0922786 Eh            2.5110 eV

     #   Z        covCN         q      C6AA      Î±(0)
     1   6 C      0.981    -0.143    40.572    10.699
     2   6 C      2.936     0.115    25.469     8.277
     3   6 C      2.887     0.059    26.670     8.467
     4   6 C      1.956    -0.110    34.129     9.434
     5   1 H      0.927     0.079     1.990     2.206

Wiberg/Mayer (AO) data.
largest (>0.10) Wiberg bond orders for each atom
          total WBO             WBO to atom ...

molecular dipole:
                 x           y           z       tot (Debye)
 q only:       -0.603      -0.257      -0.003
   full:       -1.161      -0.622      -0.002       3.348

 projected vibrational frequencies (cm-1)
eigval :       -0.00    -0.00    -0.00    -0.00     0.00     0.00
eigval :       80.97   276.69   658.09   725.56   859.96   921.60
eigval :     1508.77  1807.81  3203.77

   temp. (K)  partition function   enthalpy   heat capacity  entropy
                                   cal/mol     cal/K/mol   cal/K/mol   J/K/mol
  10.00  VIB   1.00                    0.002      0.002     -0.041
         ROT   110.                   29.809      2.981     12.328
         INT   110.                   29.811      2.983     12.286
         TR   0.204E+25               49.681      4.968     20.719
         TOT                          79.4924     7.9514    33.0055   138.0950

       T/K    H(0)-H(T)+PV         H(T)/Eh          T*S/Eh         G(T)/Eh
   ------------------------------------------------------------------------
    298.15    0.535079E-02    0.282309E-01    0.314957E-01   -0.326482E-02
    120.00    0.179434E-02    0.246745E-01    0.105661E-01    0.141083E-01
    100.00    0.145835E-02    0.243385E-01    0.850206E-02    0.158364E-01
     80.00    0.113434E-02    0.240145E-01    0.651535E-02    0.174991E-01
     60.00    0.823511E-03    0.237036E-01    0.462061E-02    0.190830E-01
     40.00    0.527964E-03    0.234081E-01    0.284212E-02    0.205660E-01
     20.00    0.254445E-03    0.231346E-01    0.123143E-02    0.219031E-01
     10.00    0.126679E-03    0.230068E-01    0.525976E-03    0.224808E-01 (used)
   ------------------------------------------------------------------------

         :::::::::::::::::::::::::::::::::::::::::::::::::::::
         ::                  THERMODYNAMIC                  ::
         :::::::::::::::::::::::::::::::::::::::::::::::::::::
         :: total free energy          -8.705281976070 Eh   ::
         ::.................................................::
         :: total energy               -8.727762815416 Eh   ::
         :: zero point energy           0.022880136028 Eh   ::
         :: G(RRHO) w/o ZPVE           -0.000399296682 Eh   ::
         :: G(RRHO) contrib.            0.022480839346 Eh   ::
         :::::::::::::::::::::::::::::::::::::::::::::::::::::

           -------------------------------------------------
          | TOTAL ENERGY               -8.727762815416 Eh   |
          | TOTAL ENTHALPY             -8.704756000156 Eh   |
          | TOTAL FREE ENERGY          -8.705281976070 Eh   |
          | GRADIENT NORM               0.000498172572 Eh/Î± |
          | HOMO-LUMO GAP               2.511029275124 eV   |
           -------------------------------------------------

 * finished run on 2020/05/12 at 11:45:10.478
