   * xtb version 6.2.2 (9d81278992624c895f80dd42a50cac0aa55982e2) compiled by '@Darwin' on 04/03/2020
          program call               : xtb --input H2C2O1_5_S_2.input H2C2O1_5_S_2.xyz --ohess --molden --namespace H2C2O1_5_S_2 output.out
          number of atoms            :                     5
          number of electrons        :                    16
          charge                     :                     0
          spin                       :                   1.0

   ID    Z sym.   atoms
    1    8 O      1
    2    6 C      2, 3
    3    1 H      4, 5

          :  Hamiltonian                  GFN2-xTB          :
 * total energy  :    -9.0608804 Eh     change       -0.2724470E-09 Eh
 * total energy  :    -9.0833004 Eh     change       -0.2242000E-01 Eh
 * total energy  :    -9.0897727 Eh     change       -0.6472309E-02 Eh
 * total energy  :    -9.0905041 Eh     change       -0.7314566E-03 Eh
 * total energy  :    -9.0907548 Eh     change       -0.2506379E-03 Eh
 * total energy  :    -9.0912896 Eh     change       -0.5348309E-03 Eh
 * total energy  :    -9.0916417 Eh     change       -0.3520465E-03 Eh
 * total energy  :    -9.0917742 Eh     change       -0.1325085E-03 Eh
 * total energy  :    -9.0918851 Eh     change       -0.1108865E-03 Eh
 * total energy  :    -9.0919679 Eh     change       -0.8285049E-04 Eh
 * total energy  :    -9.1015095 Eh     change       -0.1520808E-02 Eh
 * total energy  :    -9.1011298 Eh     change        0.3797335E-03 Eh
 * total energy  :    -9.1025153 Eh     change       -0.1385503E-02 Eh
 * total energy  :    -9.1027759 Eh     change       -0.2606268E-03 Eh
 * total energy  :    -9.1031897 Eh     change       -0.4137979E-03 Eh
 * total energy  :    -9.1033396 Eh     change       -0.1499388E-03 Eh
 * total energy  :    -9.1033956 Eh     change       -0.5597974E-04 Eh
 * total energy  :    -9.1034020 Eh     change       -0.6356071E-05 Eh
 * total energy  :    -9.1034037 Eh     change       -0.1701950E-05 Eh
   *** GEOMETRY OPTIMIZATION CONVERGED AFTER 26 ITERATIONS ***

 final structure:
================
5
 xtb: 6.2.2 (9d81278992624c895f80dd42a50cac0aa55982e2)
O         0.80624856461585    0.18908440708566    0.24854023110316
C        -0.49891035696949    0.11478035592523    0.07137976403944
C         1.72097552423139   -0.50036916268450   -0.34736035153224
H        -0.92566905164461   -0.58090904042433   -0.63706068833507
H        -1.10264468023313    0.77741244009794    0.66450104472471

          :  Hamiltonian                  GFN2-xTB          :
         :: gradient norm              0.000265101133 Eh/a0 ::
         :: HOMO-LUMO gap              1.267633117288 eV    ::
         :: SCC energy                -9.174502285503 Eh    ::
         :: -> dispersion             -0.001434910400 Eh    ::
         :: repulsion energy           0.071098602393 Eh    ::

    * Orbital Energies and Occupations

         #    Occupation            Energy/Eh            Energy/eV
      -------------------------------------------------------------
         1        2.0000           -0.7670303             -20.8720
         2        2.0000           -0.7045669             -19.1722
         3        2.0000           -0.6271486             -17.0656
         4        2.0000           -0.5926489             -16.1268
         5        2.0000           -0.5807757             -15.8037
         6        2.0000           -0.5127018             -13.9513
         7        2.0000           -0.4399831             -11.9726
         8        1.0000           -0.3727169             -10.1421
         9        1.0000           -0.2959488              -8.0532 (HOMO)
        10                         -0.2493642              -6.7855 (LUMO)
        11                          0.0733532               1.9960
        12                          0.1502941               4.0897
        13                          0.2457770               6.6879
        14                          0.4506330              12.2623
      -------------------------------------------------------------
                  HL-Gap            0.0465847 Eh            1.2676 eV

     #   Z        covCN         q      C6AA      Î±(0)
     1   8 O      1.709    -0.024    14.798     5.194
     2   6 C      2.741     0.038    27.134     8.529
     3   6 C      0.889    -0.160    40.469    10.634
     4   1 H      0.926     0.071     2.078     2.254
     5   1 H      0.926     0.076     2.022     2.224

Wiberg/Mayer (AO) data.
largest (>0.10) Wiberg bond orders for each atom
          total WBO             WBO to atom ...

molecular dipole:
                 x           y           z       tot (Debye)
 q only:       -0.875       0.185       0.109
   full:       -1.329       0.378       0.260       3.574

 projected vibrational frequencies (cm-1)
eigval :       -0.00     0.00     0.00     0.00     0.00     0.00
Molecule has the following symmetry elements: (sigma)
It seems to be the Cs point group
eigval :      296.31   398.60   627.57  1049.56  1102.98  1233.69
eigval :     1349.73  3043.83  3139.62

   temp. (K)  partition function   enthalpy   heat capacity  entropy
                                   cal/mol     cal/K/mol   cal/K/mol   J/K/mol
  10.00  VIB   1.00                    0.000      0.000     -0.002
         ROT   43.2                   29.809      2.981     10.465
         INT   43.2                   29.809      2.981     10.463
         TR   0.162E+25               49.681      4.968     20.259
         TOT                          79.4904     7.9490    30.7219   128.5405

       T/K    H(0)-H(T)+PV         H(T)/Eh          T*S/Eh         G(T)/Eh
   ------------------------------------------------------------------------
    298.15    0.473660E-02    0.326256E-01    0.288451E-01    0.378059E-02
    120.00    0.157689E-02    0.294659E-01    0.972292E-02    0.197430E-01
    100.00    0.129227E-02    0.291813E-01    0.784322E-02    0.213381E-01
     80.00    0.102142E-02    0.289105E-01    0.603309E-02    0.228774E-01
     60.00    0.761294E-03    0.286503E-01    0.430053E-02    0.243498E-01
     40.00    0.506737E-03    0.283958E-01    0.266070E-02    0.257351E-01
     20.00    0.253352E-03    0.281424E-01    0.115475E-02    0.269877E-01
     10.00    0.126676E-03    0.280157E-01    0.489585E-03    0.275261E-01 (used)
   ------------------------------------------------------------------------

         :::::::::::::::::::::::::::::::::::::::::::::::::::::
         ::                  THERMODYNAMIC                  ::
         :::::::::::::::::::::::::::::::::::::::::::::::::::::
         :: total free energy          -9.075877528216 Eh   ::
         ::.................................................::
         :: total energy               -9.103403668854 Eh   ::
         :: zero point energy           0.027889049349 Eh   ::
         :: G(RRHO) w/o ZPVE           -0.000362908711 Eh   ::
         :: G(RRHO) contrib.            0.027526140638 Eh   ::
         :::::::::::::::::::::::::::::::::::::::::::::::::::::

           -------------------------------------------------
          | TOTAL ENERGY               -9.103403668854 Eh   |
          | TOTAL ENTHALPY             -9.075387943490 Eh   |
          | TOTAL FREE ENERGY          -9.075877528216 Eh   |
          | GRADIENT NORM               0.000265100754 Eh/Î± |
          | HOMO-LUMO GAP               1.267633275738 eV   |
           -------------------------------------------------

 * finished run on 2020/05/12 at 11:45:14.930
