   * xtb version 6.2.2 (9d81278992624c895f80dd42a50cac0aa55982e2) compiled by '@Darwin' on 04/03/2020
          program call               : xtb --input H2C1O2_1_S_0.input H2C1O2_1_S_0.xyz --ohess --molden --namespace H2C1O2_1_S_0 output.out
          number of atoms            :                     5
          number of electrons        :                    18
          charge                     :                     0
          spin                       :                   0.0

   ID    Z sym.   atoms
    1    6 C      1
    2    8 O      2, 3
    3    1 H      4, 5

          :  Hamiltonian                  GFN2-xTB          :
 * total energy  :   -11.1838748 Eh     change       -0.7055512E-09 Eh
 * total energy  :   -11.2441147 Eh     change       -0.6023988E-01 Eh
 * total energy  :   -11.2399652 Eh     change        0.4149442E-02 Eh
 * total energy  :   -11.2650747 Eh     change       -0.2510949E-01 Eh
 * total energy  :   -11.2673343 Eh     change       -0.2259578E-02 Eh
 * total energy  :   -11.2684073 Eh     change       -0.1072980E-02 Eh
 * total energy  :   -11.2693353 Eh     change       -0.9280180E-03 Eh
 * total energy  :   -11.2701142 Eh     change       -0.7789531E-03 Eh
 * total energy  :   -11.2708455 Eh     change       -0.7312368E-03 Eh
 * total energy  :   -11.2714297 Eh     change       -0.5842287E-03 Eh
 * total energy  :   -11.2716572 Eh     change       -0.2274476E-03 Eh
 * total energy  :   -11.2716574 Eh     change       -0.2208268E-06 Eh
 * total energy  :   -11.2717059 Eh     change       -0.4852543E-04 Eh
 * total energy  :   -11.2717071 Eh     change       -0.1172708E-05 Eh
   *** GEOMETRY OPTIMIZATION CONVERGED AFTER 14 ITERATIONS ***

 final structure:
================
5
 xtb: 6.2.2 (9d81278992624c895f80dd42a50cac0aa55982e2)
C        -0.42501838918039    0.07674668367457    0.01641474637196
O         0.86413564202903    0.35865335207775    0.21403456016504
O        -1.30889858596877    0.80638531046557    0.32387127429594
H        -0.59705750272625   -0.90940472597318   -0.46641969007306
H         1.46683983584637   -0.33238062024471   -0.08790089075988

          :  Hamiltonian                  GFN2-xTB          :
         :: gradient norm              0.000459459731 Eh/a0 ::
         :: HOMO-LUMO gap              5.024047828434 eV    ::
         :: SCC energy               -11.358983452023 Eh    ::
         :: -> dispersion             -0.001222070332 Eh    ::
         :: repulsion energy           0.087276362654 Eh    ::

    * Orbital Energies and Occupations

         #    Occupation            Energy/Eh            Energy/eV
      -------------------------------------------------------------
         1        2.0000           -0.7628053             -20.7570
         2        2.0000           -0.7380973             -20.0846
         3        2.0000           -0.6642501             -18.0752
         4        2.0000           -0.6388550             -17.3841
         5        2.0000           -0.5944360             -16.1754
         6        2.0000           -0.5703618             -15.5203
         7        2.0000           -0.5293903             -14.4054
         8        2.0000           -0.4956410             -13.4871
         9        2.0000           -0.4389204             -11.9436 (HOMO)
        10                         -0.2542900              -6.9196 (LUMO)
        11                          0.0439366               1.1956
        12                          0.1013243               2.7572
        13                          0.2950456               8.0286
        14                          0.6376769              17.3521
      -------------------------------------------------------------
                  HL-Gap            0.1846304 Eh            5.0240 eV

     #   Z        covCN         q      C6AA      Î±(0)
     1   6 C      2.631     0.344    21.162     7.525
     2   8 O      1.659    -0.348    19.863     6.016
     3   8 O      0.856    -0.325    20.230     6.030
     4   1 H      0.921     0.001     3.045     2.729
     5   1 H      0.805     0.327     0.644     1.261

Wiberg/Mayer (AO) data.
largest (>0.10) Wiberg bond orders for each atom
          total WBO             WBO to atom ...

molecular dipole:
                 x           y           z       tot (Debye)
 q only:        0.865      -0.887      -0.384
   full:        1.058      -1.237      -0.542       4.360

 projected vibrational frequencies (cm-1)
eigval :       -0.00    -0.00     0.00     0.00     0.00     0.00
eigval :      488.00   609.92   951.20  1107.30  1184.52  1408.94
eigval :     1827.31  2729.19  3506.81

   temp. (K)  partition function   enthalpy   heat capacity  entropy
                                   cal/mol     cal/K/mol   cal/K/mol   J/K/mol
  10.00  VIB   1.00                    0.000      0.000     -0.000
         ROT   50.8                   29.809      2.981     10.786
         INT   50.8                   29.809      2.981     10.786
         TR   0.186E+25               49.681      4.968     20.529
         TOT                          79.4904     7.9490    31.3152   131.0227

       T/K    H(0)-H(T)+PV         H(T)/Eh          T*S/Eh         G(T)/Eh
   ------------------------------------------------------------------------
    298.15    0.425949E-02    0.357282E-01    0.283440E-01    0.738428E-02
    120.00    0.152844E-02    0.329972E-01    0.977442E-02    0.232228E-01
    100.00    0.126918E-02    0.327379E-01    0.790914E-02    0.248288E-01
     80.00    0.101380E-02    0.324826E-01    0.609947E-02    0.263831E-01
     60.00    0.760076E-03    0.322288E-01    0.435571E-02    0.278731E-01
     40.00    0.506704E-03    0.319755E-01    0.269840E-02    0.292771E-01
     20.00    0.253352E-03    0.317221E-01    0.117364E-02    0.305485E-01
     10.00    0.126676E-03    0.315954E-01    0.499039E-03    0.310964E-01 (used)
   ------------------------------------------------------------------------

         :::::::::::::::::::::::::::::::::::::::::::::::::::::
         ::                  THERMODYNAMIC                  ::
         :::::::::::::::::::::::::::::::::::::::::::::::::::::
         :: total free energy         -11.240610682860 Eh   ::
         ::.................................................::
         :: total energy              -11.271707076094 Eh   ::
         :: zero point energy           0.031468756405 Eh   ::
         :: G(RRHO) w/o ZPVE           -0.000372363172 Eh   ::
         :: G(RRHO) contrib.            0.031096393234 Eh   ::
         :::::::::::::::::::::::::::::::::::::::::::::::::::::

           -------------------------------------------------
          | TOTAL ENERGY              -11.271707076094 Eh   |
          | TOTAL ENTHALPY            -11.240111643673 Eh   |
          | TOTAL FREE ENERGY         -11.240610682860 Eh   |
          | GRADIENT NORM               0.000459485375 Eh/Î± |
          | HOMO-LUMO GAP               5.024048738676 eV   |
           -------------------------------------------------

 * finished run on 2020/05/12 at 11:43:52.276
