   * xtb version 6.2.2 (9d81278992624c895f80dd42a50cac0aa55982e2) compiled by '@Darwin' on 04/03/2020
          program call               : xtb --input H3C1N1_2_S_2.input H3C1N1_2_S_2.xyz --ohess --molden --namespace H3C1N1_2_S_2 output.out
          number of atoms            :                     5
          number of electrons        :                    12
          charge                     :                     0
          spin                       :                   1.0

   ID    Z sym.   atoms
    1    6 C      1
    2    7 N      2
    3    1 H      3-5

          :  Hamiltonian                  GFN2-xTB          :
 * total energy  :    -6.3687829 Eh     change        0.2846194E-09 Eh
 * total energy  :    -6.3811336 Eh     change       -0.1235066E-01 Eh
 * total energy  :    -6.3865685 Eh     change       -0.5434989E-02 Eh
 * total energy  :    -6.3873064 Eh     change       -0.7378804E-03 Eh
 * total energy  :    -6.3877198 Eh     change       -0.4133832E-03 Eh
 * total energy  :    -6.3879160 Eh     change       -0.1961473E-03 Eh
 * total energy  :    -6.3880221 Eh     change       -0.1061816E-03 Eh
 * total energy  :    -6.3880893 Eh     change       -0.6719798E-04 Eh
 * total energy  :    -6.3881320 Eh     change       -0.4267858E-04 Eh
 * total energy  :    -6.3882593 Eh     change       -0.1273153E-03 Eh
 * total energy  :    -6.3897813 Eh     change       -0.1902312E-03 Eh
 * total energy  :    -6.3899094 Eh     change       -0.1281451E-03 Eh
 * total energy  :    -6.3898688 Eh     change        0.4057280E-04 Eh
 * total energy  :    -6.3903247 Eh     change       -0.4558482E-03 Eh
 * total energy  :    -6.3906689 Eh     change       -0.3442055E-03 Eh
 * total energy  :    -6.3908479 Eh     change       -0.1790364E-03 Eh
 * total energy  :    -6.3909406 Eh     change       -0.9272178E-04 Eh
 * total energy  :    -6.3909466 Eh     change       -0.5934105E-05 Eh
 * total energy  :    -6.3909469 Eh     change       -0.3149978E-06 Eh
   *** GEOMETRY OPTIMIZATION CONVERGED AFTER 24 ITERATIONS ***

 final structure:
================
5
 xtb: 6.2.2 (9d81278992624c895f80dd42a50cac0aa55982e2)
C         0.80242514723490   -0.17149433247038    0.32542207120283
N        -0.45764673513321    0.08234339381898   -0.13286938461638
H         1.66765855803360   -0.06407148570699   -0.30336072751162
H        -0.93227361783265    0.87442429920990    0.29468013648107
H        -1.08016335230264   -0.72120187485151   -0.18387209555590

          :  Hamiltonian                  GFN2-xTB          :
         :: gradient norm              0.000140398737 Eh/a0 ::
         :: HOMO-LUMO gap              8.673862628994 eV    ::
         :: SCC energy                -6.466408224588 Eh    ::
         :: -> dispersion             -0.000998002889 Eh    ::
         :: repulsion energy           0.075461324763 Eh    ::

    * Orbital Energies and Occupations

         #    Occupation            Energy/Eh            Energy/eV
      -------------------------------------------------------------
         1        2.0000           -0.6213759             -16.9085
         2        2.0000           -0.5623293             -15.3018
         3        2.0000           -0.5337683             -14.5246
         4        2.0000           -0.4749993             -12.9254
         5        2.0000           -0.4457531             -12.1296
         6        1.0000           -0.2880868              -7.8392
         7        1.0000           -0.2805079              -7.6330 (HOMO)
         8                          0.0382507               1.0409 (LUMO)
         9                          0.2092914               5.6951
        10                          0.2390605               6.5052
        11                          0.3307415               8.9999
      -------------------------------------------------------------
                  HL-Gap            0.3187586 Eh            8.6739 eV

     #   Z        covCN         q      C6AA      Î±(0)
     1   6 C      1.836    -0.149    35.402     9.612
     2   7 N      2.629    -0.216    25.728     7.533
     3   1 H      0.926     0.041     2.435     2.440
     4   1 H      0.860     0.162     1.320     1.800
     5   1 H      0.860     0.162     1.321     1.800

Wiberg/Mayer (AO) data.
largest (>0.10) Wiberg bond orders for each atom
          total WBO             WBO to atom ...

molecular dipole:
                 x           y           z       tot (Debye)
 q only:       -0.527       0.057      -0.027
   full:       -0.722       0.086      -0.065       1.856

 projected vibrational frequencies (cm-1)
eigval :       -0.00    -0.00    -0.00    -0.00     0.00     0.00
eigval :      410.89   678.69   979.82  1029.39  1331.31  1483.96
eigval :     3026.21  3268.90  3281.21

   temp. (K)  partition function   enthalpy   heat capacity  entropy
                                   cal/mol     cal/K/mol   cal/K/mol   J/K/mol
  10.00  VIB   1.00                    0.000      0.000     -0.001
         ROT   12.3                   29.809      2.981      7.971
         INT   12.3                   29.809      2.981      7.970
         TR   0.930E+24               49.681      4.968     19.157
         TOT                          79.4904     7.9490    27.1278   113.5027

       T/K    H(0)-H(T)+PV         H(T)/Eh          T*S/Eh         G(T)/Eh
   ------------------------------------------------------------------------
    298.15    0.428511E-02    0.395748E-01    0.264099E-01    0.131649E-01
    120.00    0.153475E-02    0.368244E-01    0.898153E-02    0.278429E-01
    100.00    0.127203E-02    0.365617E-01    0.724526E-02    0.293164E-01
     80.00    0.101458E-02    0.363043E-01    0.556655E-02    0.307377E-01
     60.00    0.760155E-03    0.360498E-01    0.395543E-02    0.320944E-01
     40.00    0.506705E-03    0.357964E-01    0.243149E-02    0.333649E-01
     20.00    0.253352E-03    0.355430E-01    0.104018E-02    0.345028E-01
     10.00    0.126676E-03    0.354164E-01    0.432309E-03    0.349840E-01 (used)
   ------------------------------------------------------------------------

         :::::::::::::::::::::::::::::::::::::::::::::::::::::
         ::                  THERMODYNAMIC                  ::
         :::::::::::::::::::::::::::::::::::::::::::::::::::::
         :: total free energy          -6.355962845823 Eh   ::
         ::.................................................::
         :: total energy               -6.390946889968 Eh   ::
         :: zero point energy           0.035289677019 Eh   ::
         :: G(RRHO) w/o ZPVE           -0.000305632874 Eh   ::
         :: G(RRHO) contrib.            0.034984044145 Eh   ::
         :::::::::::::::::::::::::::::::::::::::::::::::::::::

           -------------------------------------------------
          | TOTAL ENERGY               -6.390946889968 Eh   |
          | TOTAL ENTHALPY             -6.355530536933 Eh   |
          | TOTAL FREE ENERGY          -6.355962845823 Eh   |
          | GRADIENT NORM               0.000140404034 Eh/Î± |
          | HOMO-LUMO GAP               8.673861764487 eV   |
           -------------------------------------------------

 * finished run on 2020/05/12 at 11:44:28.572
