   * xtb version 6.2.2 (9d81278992624c895f80dd42a50cac0aa55982e2) compiled by '@Darwin' on 04/03/2020
          program call               : xtb --input C4N1_50_S_3.input C4N1_50_S_3.xyz --ohess --molden --namespace C4N1_50_S_3 output.out
          number of atoms            :                     5
          number of electrons        :                    21
          charge                     :                     0
          spin                       :                   1.5

   ID    Z sym.   atoms
    1    7 N      1
    2    6 C      2-5

          :  Hamiltonian                  GFN2-xTB          :
 * total energy  :   -10.9421536 Eh     change       -0.3688427E-10 Eh
 * total energy  :   -10.9714915 Eh     change       -0.2933790E-01 Eh
 * total energy  :   -10.9824686 Eh     change       -0.1097709E-01 Eh
 * total energy  :   -10.9826931 Eh     change       -0.2245177E-03 Eh
 * total energy  :   -10.9827070 Eh     change       -0.1388919E-04 Eh
 * total energy  :   -10.9827187 Eh     change       -0.1166487E-04 Eh
 * total energy  :   -10.9827248 Eh     change       -0.6138836E-05 Eh
 * total energy  :   -10.9827293 Eh     change       -0.4526973E-05 Eh
   *** GEOMETRY OPTIMIZATION CONVERGED AFTER 8 ITERATIONS ***

 final structure:
================
5
 xtb: 6.2.2 (9d81278992624c895f80dd42a50cac0aa55982e2)
N         0.61000343786864   -0.78047478028768    0.24321366468762
C         0.04975251773909   -0.03629183859188   -0.90920283202857
C        -0.65660187956358    0.82544893081342    0.23539220753827
C         0.81021500048914    0.63601790072042    0.23415756784422
C        -0.81337007653328   -0.64470021265428    0.19643939195846

          :  Hamiltonian                  GFN2-xTB          :
         :: gradient norm              0.000827772373 Eh/a0 ::
         :: HOMO-LUMO gap              4.148486897187 eV    ::
         :: SCC energy               -11.091454297050 Eh    ::
         :: -> dispersion             -0.002597640719 Eh    ::
         :: repulsion energy           0.108724958953 Eh    ::

    * Orbital Energies and Occupations

         #    Occupation            Energy/Eh            Energy/eV
      -------------------------------------------------------------
         1        2.0000           -0.7836429             -21.3240
         2        2.0000           -0.6703947             -18.2424
         3        2.0000           -0.6678791             -18.1739
         4        2.0000           -0.6323342             -17.2067
         5        2.0000           -0.5635388             -15.3347
         6        2.0000           -0.5188677             -14.1191
         7        2.0000           -0.5150826             -14.0161
         8        2.0000           -0.4914597             -13.3733
         9        2.0000           -0.4833860             -13.1536
        10        1.0000           -0.4626234             -12.5886
        11        1.0000           -0.4082527             -11.1091
        12        1.0000           -0.3994396             -10.8693 (HOMO)
        13                         -0.2469855              -6.7208 (LUMO)
        14                         -0.1687630              -4.5923
        15                         -0.1432149              -3.8971
        16                          0.0080780               0.2198
        17                          0.0675770               1.8389
        18                          0.1031430               2.8067
        19                          0.1143522               3.1117
        20                          0.3304543               8.9921
      -------------------------------------------------------------
                  HL-Gap            0.1524541 Eh            4.1485 eV

     #   Z        covCN         q      C6AA      Î±(0)
     1   7 N      2.991    -0.078    22.755     7.085
     2   6 C      3.820     0.116    18.679     6.151
     3   6 C      3.190    -0.010    27.760     8.594
     4   6 C      3.213    -0.014    27.687     8.563
     5   6 C      3.213    -0.014    27.687     8.563

Wiberg/Mayer (AO) data.
largest (>0.10) Wiberg bond orders for each atom
          total WBO             WBO to atom ...

molecular dipole:
                 x           y           z       tot (Debye)
 q only:       -0.067       0.093      -0.250
   full:        0.060      -0.061      -0.533       1.373

 projected vibrational frequencies (cm-1)
eigval :       -0.00    -0.00    -0.00    -0.00     0.00     0.00
eigval :      262.08   414.92   548.89   889.62   998.10  1054.71
eigval :     1136.16  1159.19  1406.24

   temp. (K)  partition function   enthalpy   heat capacity  entropy
                                   cal/mol     cal/K/mol   cal/K/mol   J/K/mol
  10.00  VIB   1.00                    0.000      0.000     -0.003
         ROT   133.                   29.809      2.981     12.694
         INT   133.                   29.809      2.981     12.692
         TR   0.290E+25               49.681      4.968     21.419
         TOT                          79.4904     7.9490    34.1110   142.7203

       T/K    H(0)-H(T)+PV         H(T)/Eh          T*S/Eh         G(T)/Eh
   ------------------------------------------------------------------------
    298.15    0.490375E-02    0.228328E-01    0.307086E-01   -0.787585E-02
    120.00    0.159078E-02    0.195198E-01    0.103906E-01    0.912919E-02
    100.00    0.130070E-02    0.192297E-01    0.839466E-02    0.108350E-01
     80.00    0.102544E-02    0.189544E-01    0.647031E-02    0.124841E-01
     60.00    0.762382E-03    0.186914E-01    0.462594E-02    0.140654E-01
     40.00    0.506801E-03    0.184358E-01    0.287685E-02    0.155590E-01
     20.00    0.253352E-03    0.181824E-01    0.126278E-02    0.169196E-01
     10.00    0.126676E-03    0.180557E-01    0.543593E-03    0.175121E-01 (used)
   ------------------------------------------------------------------------

         :::::::::::::::::::::::::::::::::::::::::::::::::::::
         ::                  THERMODYNAMIC                  ::
         :::::::::::::::::::::::::::::::::::::::::::::::::::::
         :: total free energy         -10.965217236648 Eh   ::
         ::.................................................::
         :: total energy              -10.982729321140 Eh   ::
         :: zero point energy           0.017929001461 Eh   ::
         :: G(RRHO) w/o ZPVE           -0.000416916970 Eh   ::
         :: G(RRHO) contrib.            0.017512084491 Eh   ::
         :::::::::::::::::::::::::::::::::::::::::::::::::::::

           -------------------------------------------------
          | TOTAL ENERGY              -10.982729321140 Eh   |
          | TOTAL ENTHALPY            -10.964673643663 Eh   |
          | TOTAL FREE ENERGY         -10.965217236648 Eh   |
          | GRADIENT NORM               0.000827949697 Eh/Î± |
          | HOMO-LUMO GAP               4.148487614147 eV   |
           -------------------------------------------------

 * finished run on 2020/05/12 at 11:44:21.128
