   * xtb version 6.2.2 (9d81278992624c895f80dd42a50cac0aa55982e2) compiled by '@Darwin' on 04/03/2020
          program call               : xtb --input H1C3N1_5_S_0.input H1C3N1_5_S_0.xyz --ohess --molden --namespace H1C3N1_5_S_0 output.out
          number of atoms            :                     5
          number of electrons        :                    18
          charge                     :                     0
          spin                       :                   0.0

   ID    Z sym.   atoms
    1    6 C      1-3
    2    7 N      4
    3    1 H      5

          :  Hamiltonian                  GFN2-xTB          :
 * total energy  :    -9.4135970 Eh     change       -0.2118767E-09 Eh
 * total energy  :    -9.5603017 Eh     change       -0.1467048E+00 Eh
 * total energy  :    -9.5621608 Eh     change       -0.1859030E-02 Eh
 * total energy  :    -9.6520800 Eh     change       -0.8991921E-01 Eh
 * total energy  :    -9.6627426 Eh     change       -0.1066260E-01 Eh
 * total energy  :    -9.6864296 Eh     change       -0.2368705E-01 Eh
 * total energy  :    -9.6806625 Eh     change        0.5767056E-02 Eh
 * total energy  :    -9.7052938 Eh     change       -0.2463129E-01 Eh
 * total energy  :    -9.7042903 Eh     change        0.1003569E-02 Eh
 * total energy  :    -9.7159606 Eh     change       -0.1167034E-01 Eh
 * total energy  :    -9.7262447 Eh     change       -0.1591308E-03 Eh
 * total energy  :    -9.7261622 Eh     change        0.8257414E-04 Eh
 * total energy  :    -9.7263321 Eh     change       -0.1698903E-03 Eh
 * total energy  :    -9.7263776 Eh     change       -0.4554795E-04 Eh
 * total energy  :    -9.7264433 Eh     change       -0.6572048E-04 Eh
 * total energy  :    -9.7265653 Eh     change       -0.1219841E-03 Eh
 * total energy  :    -9.7266131 Eh     change       -0.4783849E-04 Eh
 * total energy  :    -9.7266276 Eh     change       -0.1446518E-04 Eh
 * total energy  :    -9.7266291 Eh     change       -0.1522051E-05 Eh
   *** GEOMETRY OPTIMIZATION CONVERGED AFTER 29 ITERATIONS ***

 final structure:
================
5
 xtb: 6.2.2 (9d81278992624c895f80dd42a50cac0aa55982e2)
C        -1.28332041008263   -0.06102519153523    0.09405272967705
C        -0.08394706844731   -0.00258683719840    0.00732334669116
C         1.27611608825200    0.06071813144937   -0.09611013424451
N         2.42000722532945    0.11339809392454   -0.17744031489483
H        -2.32885583505153   -0.11050319664029    0.17217437277112

          :  Hamiltonian                  GFN2-xTB          :
         :: gradient norm              0.000602896799 Eh/a0 ::
         :: HOMO-LUMO gap              4.527002501443 eV    ::
         :: SCC energy                -9.997270772471 Eh    ::
         :: -> dispersion             -0.001981191973 Eh    ::
         :: repulsion energy           0.270642168574 Eh    ::

    * Orbital Energies and Occupations

         #    Occupation            Energy/Eh            Energy/eV
      -------------------------------------------------------------
         1        2.0000           -0.6583593             -17.9149
         2        2.0000           -0.6532242             -17.7751
         3        2.0000           -0.6040485             -16.4370
         4        2.0000           -0.5355476             -14.5730
         5        2.0000           -0.5145266             -14.0010
         6        2.0000           -0.5145266             -14.0010
         7        2.0000           -0.4547589             -12.3746
         8        2.0000           -0.4547582             -12.3746
         9        2.0000           -0.4398776             -11.9697 (HOMO)
        10                         -0.2735137              -7.4427 (LUMO)
        11                         -0.2735120              -7.4426
        12                         -0.1084590              -2.9513
        13                         -0.1084570              -2.9513
        14                          0.0376266               1.0239
        15                          0.2931059               7.9758
        16                          1.0607177              28.8636
        17                          1.5402192              41.9115
      -------------------------------------------------------------
                  HL-Gap            0.1663639 Eh            4.5270 eV

     #   Z        covCN         q      C6AA      Î±(0)
     1   6 C      1.910    -0.050    32.447     9.199
     2   6 C      1.962     0.008    30.870     8.972
     3   6 C      1.892     0.142    27.651     8.493
     4   7 N      0.911    -0.205    25.456     7.297
     5   1 H      0.928     0.105     1.743     2.064

Wiberg/Mayer (AO) data.
largest (>0.10) Wiberg bond orders for each atom
          total WBO             WBO to atom ...

molecular dipole:
                 x           y           z       tot (Debye)
 q only:       -0.935      -0.044       0.068
   full:       -1.450      -0.068       0.105       3.699

   temp. (K)  partition function   enthalpy   heat capacity  entropy
                                   cal/mol     cal/K/mol   cal/K/mol   J/K/mol
  10.00  VIB   1.00                    0.000      0.000     -0.010
         ROT   45.2                   19.873      1.987      9.560
         INT   45.2                   19.873      1.987      9.550
         TR   0.217E+25               49.681      4.968     20.838
         TOT                          69.5541     6.9554    30.3876   127.1417

       T/K    H(0)-H(T)+PV         H(T)/Eh          T*S/Eh         G(T)/Eh
   ------------------------------------------------------------------------
    298.15    0.522240E-02    0.315875E-01    0.287808E-01    0.280673E-02
    120.00    0.153138E-02    0.278965E-01    0.939582E-02    0.185007E-01
    100.00    0.122380E-02    0.275889E-01    0.754988E-02    0.200390E-01
     80.00    0.939927E-03    0.273050E-01    0.578697E-02    0.215181E-01
     60.00    0.680674E-03    0.270458E-01    0.411696E-02    0.229288E-01
     40.00    0.444793E-03    0.268099E-01    0.255380E-02    0.242561E-01
     20.00    0.221684E-03    0.265868E-01    0.112230E-02    0.254645E-01
     10.00    0.110842E-03    0.264759E-01    0.484257E-03    0.259917E-01 (used)
   ------------------------------------------------------------------------

         :::::::::::::::::::::::::::::::::::::::::::::::::::::
         ::                  THERMODYNAMIC                  ::
         :::::::::::::::::::::::::::::::::::::::::::::::::::::
         :: total free energy          -9.700637437793 Eh   ::
         ::.................................................::
         :: total energy               -9.726629127560 Eh   ::
         :: zero point energy           0.026365105306 Eh   ::
         :: G(RRHO) w/o ZPVE           -0.000373415540 Eh   ::
         :: G(RRHO) contrib.            0.025991689766 Eh   ::
         :::::::::::::::::::::::::::::::::::::::::::::::::::::

           -------------------------------------------------
          | TOTAL ENERGY               -9.726629127560 Eh   |
          | TOTAL ENTHALPY             -9.700153180740 Eh   |
          | TOTAL FREE ENERGY          -9.700637437793 Eh   |
          | GRADIENT NORM               0.000602838893 Eh/Î± |
          | HOMO-LUMO GAP               4.526990851263 eV   |
           -------------------------------------------------

 * finished run on 2020/05/12 at 11:44:52.190
