   * xtb version 6.2.2 (9d81278992624c895f80dd42a50cac0aa55982e2) compiled by '@Darwin' on 04/03/2020
          program call               : xtb --input H2C2O1_4_S_0.input H2C2O1_4_S_0.xyz --ohess --molden --namespace H2C2O1_4_S_0 output.out
          number of atoms            :                     5
          number of electrons        :                    16
          charge                     :                     0
          spin                       :                   0.0

   ID    Z sym.   atoms
    1    6 C      1, 2
    2    8 O      3
    3    1 H      4, 5

          :  Hamiltonian                  GFN2-xTB          :
 * total energy  :    -9.1165169 Eh     change        0.5506902E-09 Eh
 * total energy  :    -9.1738837 Eh     change       -0.5736677E-01 Eh
 * total energy  :    -8.9473569 Eh     change        0.2265268E+00 Eh
 * total energy  :    -9.2294232 Eh     change       -0.2820663E+00 Eh
 * total energy  :    -9.2467567 Eh     change       -0.1733360E-01 Eh
 * total energy  :    -9.2569779 Eh     change       -0.1022117E-01 Eh
 * total energy  :    -9.2591846 Eh     change       -0.2206641E-02 Eh
 * total energy  :    -9.2714171 Eh     change       -0.1223257E-01 Eh
 * total energy  :    -9.2720337 Eh     change       -0.6166075E-03 Eh
 * total energy  :    -9.2751175 Eh     change       -0.3083731E-02 Eh
 * total energy  :    -9.2783346 Eh     change       -0.3132380E-04 Eh
 * total energy  :    -9.2777316 Eh     change        0.6030746E-03 Eh
 * total energy  :    -9.2784886 Eh     change       -0.7570146E-03 Eh
 * total energy  :    -9.2783525 Eh     change        0.1360251E-03 Eh
 * total energy  :    -9.2785998 Eh     change       -0.2472528E-03 Eh
 * total energy  :    -9.2786352 Eh     change       -0.3542942E-04 Eh
 * total energy  :    -9.2786805 Eh     change       -0.4526137E-04 Eh
 * total energy  :    -9.2786945 Eh     change       -0.1398704E-04 Eh
 * total energy  :    -9.2786960 Eh     change       -0.1514704E-05 Eh
   *** GEOMETRY OPTIMIZATION CONVERGED AFTER 29 ITERATIONS ***

 final structure:
================
5
 xtb: 6.2.2 (9d81278992624c895f80dd42a50cac0aa55982e2)
C        -0.13957815154169   -0.10197351700948    0.04614364406514
C         0.95607932785186   -0.34997679139802    0.45599097063001
O        -1.34928095823875    0.13317064650631   -0.38167176666239
H         1.90078970820991   -0.58960942248053    0.83311991501152
H        -1.36800992628132    0.90838908438173   -0.95358276304428

          :  Hamiltonian                  GFN2-xTB          :
         :: gradient norm              0.000393312860 Eh/a0 ::
         :: HOMO-LUMO gap              6.672465840815 eV    ::
         :: SCC energy                -9.449892962292 Eh    ::
         :: -> dispersion             -0.001322962888 Eh    ::
         :: repulsion energy           0.171197062186 Eh    ::

    * Orbital Energies and Occupations

         #    Occupation            Energy/Eh            Energy/eV
      -------------------------------------------------------------
         1        2.0000           -0.7151096             -19.4591
         2        2.0000           -0.6311120             -17.1734
         3        2.0000           -0.5957369             -16.2108
         4        2.0000           -0.5520217             -15.0213
         5        2.0000           -0.5234566             -14.2440
         6        2.0000           -0.4904247             -13.3451
         7        2.0000           -0.4075287             -11.0894
         8        2.0000           -0.3878508             -10.5540 (HOMO)
         9                         -0.1426422              -3.8815 (LUMO)
        10                         -0.1242735              -3.3817
        11                          0.0394384               1.0732
        12                          0.1655067               4.5037
        13                          0.3725207              10.1368
        14                          1.4902884              40.5528
      -------------------------------------------------------------
                  HL-Gap            0.2452086 Eh            6.6725 eV

     #   Z        covCN         q      C6AA      Î±(0)
     1   6 C      1.836     0.111    28.400     8.609
     2   6 C      1.909    -0.166    35.867     9.672
     3   8 O      1.660    -0.334    19.615     5.979
Molecule has the following symmetry elements: (sigma)
It seems to be the Cs point group
     4   1 H      0.928     0.085     1.931     2.173
     5   1 H      0.805     0.304     0.708     1.322

Wiberg/Mayer (AO) data.
largest (>0.10) Wiberg bond orders for each atom
          total WBO             WBO to atom ...

molecular dipole:
                 x           y           z       tot (Debye)
 q only:        0.039       0.433      -0.308
   full:        0.087       0.593      -0.415       1.852

 projected vibrational frequencies (cm-1)
eigval :       -0.00    -0.00     0.00     0.00     0.00     0.00
eigval :      268.38   297.88   592.31   633.15  1086.36  1154.84
eigval :     2352.01  3437.47  3502.52

   temp. (K)  partition function   enthalpy   heat capacity  entropy
                                   cal/mol     cal/K/mol   cal/K/mol   J/K/mol
  10.00  VIB   1.00                    0.000      0.000     -0.003
         ROT   21.0                   29.809      2.981      9.027
         INT   21.0                   29.809      2.981      9.024
         TR   0.162E+25               49.681      4.968     20.259
         TOT                          79.4904     7.9490    29.2829   122.5198

       T/K    H(0)-H(T)+PV         H(T)/Eh          T*S/Eh         G(T)/Eh
   ------------------------------------------------------------------------
    298.15    0.501424E-02    0.353706E-01    0.286392E-01    0.673141E-02
    120.00    0.161408E-02    0.319705E-01    0.949773E-02    0.224728E-01
    100.00    0.131284E-02    0.316692E-01    0.764047E-02    0.240288E-01
     80.00    0.102981E-02    0.313862E-01    0.586008E-02    0.255261E-01
     60.00    0.763096E-03    0.311195E-01    0.416519E-02    0.269543E-01
     40.00    0.506813E-03    0.308632E-01    0.256914E-02    0.282941E-01
     20.00    0.253352E-03    0.306098E-01    0.110891E-02    0.295008E-01
     10.00    0.126676E-03    0.304831E-01    0.466653E-03    0.300164E-01 (used)
   ------------------------------------------------------------------------

         :::::::::::::::::::::::::::::::::::::::::::::::::::::
         ::                  THERMODYNAMIC                  ::
         :::::::::::::::::::::::::::::::::::::::::::::::::::::
         :: total free energy          -9.248679564214 Eh   ::
         ::.................................................::
         :: total energy               -9.278695993134 Eh   ::
         :: zero point energy           0.030356406036 Eh   ::
         :: G(RRHO) w/o ZPVE           -0.000339977116 Eh   ::
         :: G(RRHO) contrib.            0.030016428921 Eh   ::
         :::::::::::::::::::::::::::::::::::::::::::::::::::::

           -------------------------------------------------
          | TOTAL ENERGY               -9.278695993134 Eh   |
          | TOTAL ENTHALPY             -9.248212911082 Eh   |
          | TOTAL FREE ENERGY          -9.248679564214 Eh   |
          | GRADIENT NORM               0.000392887522 Eh/Î± |
          | HOMO-LUMO GAP               6.672464892379 eV   |
           -------------------------------------------------

 * finished run on 2020/05/12 at 11:45:14.441
