   * xtb version 6.2.2 (9d81278992624c895f80dd42a50cac0aa55982e2) compiled by '@Darwin' on 04/03/2020
          program call               : xtb --input C3_0_S_2.input C3_0_S_2.xyz --ohess --molden --namespace C3_0_S_2 output.out
          number of atoms            :                     3
          number of electrons        :                    12
          charge                     :                     0
          spin                       :                   1.0

   ID    Z sym.   atoms
    1    6 C      1-3

          :  Hamiltonian                  GFN2-xTB          :
 * total energy  :    -5.9251510 Eh     change        0.5599379E-09 Eh
 * total energy  :    -6.0124106 Eh     change       -0.8725963E-01 Eh
 * total energy  :    -6.0185955 Eh     change       -0.6184852E-02 Eh
 * total energy  :    -6.0376749 Eh     change       -0.1907940E-01 Eh
 * total energy  :    -6.0400051 Eh     change       -0.2330252E-02 Eh
 * total energy  :    -6.0433800 Eh     change       -0.3374843E-02 Eh
 * total energy  :    -6.0439550 Eh     change       -0.5750226E-03 Eh
 * total energy  :    -6.0438998 Eh     change        0.5524449E-04 Eh
 * total energy  :    -6.0440318 Eh     change       -0.1320831E-03 Eh
 * total energy  :    -6.0440469 Eh     change       -0.1508226E-04 Eh
 * total energy  :    -6.0440473 Eh     change       -0.3791510E-06 Eh
   *** GEOMETRY OPTIMIZATION CONVERGED AFTER 11 ITERATIONS ***

 final structure:
================
3
 xtb: 6.2.2 (9d81278992624c895f80dd42a50cac0aa55982e2)
C         0.00000184881857   -0.00090821388273    0.00000000000000
C        -1.27215564558279   -0.00165815318624    0.00000000000000
C         1.27215479676422    0.00256636706897    0.00000000000000

          :  Hamiltonian                  GFN2-xTB          :
         :: gradient norm              0.000110654200 Eh/a0 ::
         :: HOMO-LUMO gap              0.000001430082 eV    ::
         :: SCC energy                -6.186380667346 Eh    ::
         :: -> dispersion             -0.001033229966 Eh    ::
         :: repulsion energy           0.142333372344 Eh    ::

    * Orbital Energies and Occupations

         #    Occupation            Energy/Eh            Energy/eV
      -------------------------------------------------------------
         1        2.0000           -0.6853456             -18.6492
         2        2.0000           -0.6503724             -17.6975
         3        2.0000           -0.5114417             -13.9170
         4        2.0000           -0.5114416             -13.9170
         5        2.0000           -0.4961205             -13.5001
         6        1.0000           -0.4391184             -11.9490
         7        0.5000           -0.3899955             -10.6123 (HOMO)
         8        0.5000           -0.3899954             -10.6123 (LUMO)
         9                         -0.1761774              -4.7940
        10                         -0.1761768              -4.7940
        11                          0.3242572               8.8235
        12                          1.1119963              30.2590
      -------------------------------------------------------------
                  HL-Gap            0.0000001 Eh            0.0000 eV

     #   Z        covCN         q      C6AA      Î±(0)
     1   6 C      1.962     0.091    28.798     8.666
     2   6 C      0.983    -0.046    37.329    10.263
     3   6 C      0.983    -0.046    37.329    10.263

Wiberg/Mayer (AO) data.
largest (>0.10) Wiberg bond orders for each atom
          total WBO             WBO to atom ...

molecular dipole:
                 x           y           z       tot (Debye)
 q only:        0.000      -0.000       0.000
   full:        0.000      -0.000       0.000       0.001

   temp. (K)  partition function   enthalpy   heat capacity  entropy
                                   cal/mol     cal/K/mol   cal/K/mol   J/K/mol
  10.00  VIB   1.00                    0.000      0.000     -0.002
         ROT   8.01                   19.873      1.987      6.123
         INT   8.01                   19.873      1.987      6.121
         TR   0.129E+25               49.681      4.968     19.800
         TOT                          69.5541     6.9554    25.9215   108.4554

       T/K    H(0)-H(T)+PV         H(T)/Eh          T*S/Eh         G(T)/Eh
   ------------------------------------------------------------------------
    298.15    0.407633E-02    0.124949E-01    0.247277E-01   -0.122328E-01
    120.00    0.138689E-02    0.980547E-02    0.833235E-02    0.147313E-02
    100.00    0.113368E-02    0.955226E-02    0.671304E-02    0.283922E-02
     80.00    0.894303E-03    0.931288E-02    0.515704E-02    0.415584E-02
     60.00    0.666072E-03    0.908465E-02    0.367102E-02    0.541363E-02
     40.00    0.443385E-03    0.886196E-02    0.226687E-02    0.659509E-02
     20.00    0.221683E-03    0.864026E-02    0.979797E-03    0.766046E-02
     10.00    0.110842E-03    0.852942E-02    0.413085E-03    0.811633E-02 (used)
   ------------------------------------------------------------------------

         :::::::::::::::::::::::::::::::::::::::::::::::::::::
         ::                  THERMODYNAMIC                  ::
         :::::::::::::::::::::::::::::::::::::::::::::::::::::
         :: total free energy          -6.035930965482 Eh   ::
         ::.................................................::
         :: total energy               -6.044047298932 Eh   ::
         :: zero point energy           0.008418576608 Eh   ::
         :: G(RRHO) w/o ZPVE           -0.000302243157 Eh   ::
         :: G(RRHO) contrib.            0.008116333450 Eh   ::
         :::::::::::::::::::::::::::::::::::::::::::::::::::::

           -------------------------------------------------
          | TOTAL ENERGY               -6.044047298932 Eh   |
          | TOTAL ENTHALPY             -6.035517880811 Eh   |
          | TOTAL FREE ENERGY          -6.035930965482 Eh   |
          | GRADIENT NORM               0.000110651582 Eh/Î± |
          | HOMO-LUMO GAP               0.000001431438 eV   |
           -------------------------------------------------

 * finished run on 2020/05/12 at 11:44:25.329
