   * xtb version 6.2.2 (9d81278992624c895f80dd42a50cac0aa55982e2) compiled by '@Darwin' on 04/03/2020
          program call               : xtb --input C4_1_S_0.input C4_1_S_0.xyz --ohess --molden --namespace C4_1_S_0 output.out
          number of atoms            :                     4
          number of electrons        :                    16
          charge                     :                     0
          spin                       :                   0.0

   ID    Z sym.   atoms
    1    6 C      1-4

          :  Hamiltonian                  GFN2-xTB          :
 * total energy  :    -8.0091002 Eh     change       -0.9408652E-10 Eh
 * total energy  :    -8.1202244 Eh     change       -0.1111242E+00 Eh
 * total energy  :    -8.1427248 Eh     change       -0.2250039E-01 Eh
 * total energy  :    -8.1599707 Eh     change       -0.1724586E-01 Eh
 * total energy  :    -8.1600446 Eh     change       -0.7389037E-04 Eh
 * total energy  :    -8.1672681 Eh     change       -0.7223487E-02 Eh
 * total energy  :    -8.1835023 Eh     change       -0.1623418E-01 Eh
 * total energy  :    -8.1613542 Eh     change        0.2214807E-01 Eh
 * total energy  :    -8.1640756 Eh     change       -0.2721456E-02 Eh
 * total energy  :    -8.1814892 Eh     change       -0.1741355E-01 Eh
 * total energy  :    -8.1985005 Eh     change       -0.5360162E-02 Eh
 * total energy  :    -8.1995009 Eh     change       -0.1000383E-02 Eh
 * total energy  :    -8.2002061 Eh     change       -0.7052129E-03 Eh
 * total energy  :    -8.2004533 Eh     change       -0.2471993E-03 Eh
 * total energy  :    -8.2005570 Eh     change       -0.1037055E-03 Eh
 * total energy  :    -8.2005887 Eh     change       -0.3162488E-04 Eh
 * total energy  :    -8.2006120 Eh     change       -0.2337629E-04 Eh
 * total energy  :    -8.2006175 Eh     change       -0.5439862E-05 Eh
 * total energy  :    -8.2006180 Eh     change       -0.4832241E-06 Eh
   *** GEOMETRY OPTIMIZATION CONVERGED AFTER 30 ITERATIONS ***

 final structure:
================
4
 xtb: 6.2.2 (9d81278992624c895f80dd42a50cac0aa55982e2)
C         1.82721902487546   -0.00306235286841   -0.15200411265980
C         0.66218758068412    0.00479452643117    0.18127387264801
C        -0.66217911819516   -0.00409244715108   -0.18124899113044
C        -1.82722748736442    0.00236027358830    0.15197823114222

          :  Hamiltonian                  GFN2-xTB          :
         :: gradient norm              0.000300186442 Eh/a0 ::
         :: HOMO-LUMO gap              1.053438895412 eV    ::
         :: SCC energy                -8.445362234750 Eh    ::
         :: -> dispersion             -0.001907935586 Eh    ::
         :: repulsion energy           0.244744345499 Eh    ::

    * Orbital Energies and Occupations

         #    Occupation            Energy/Eh            Energy/eV
      -------------------------------------------------------------
         1        2.0000           -0.6761079             -18.3978
         2        2.0000           -0.6635119             -18.0551
         3        2.0000           -0.5986432             -16.2899
         4        2.0000           -0.5142633             -13.9938
         5        2.0000           -0.5120767             -13.9343
         6        2.0000           -0.4565608             -12.4237
         7        2.0000           -0.4528214             -12.3219
         8        2.0000           -0.4460175             -12.1368 (HOMO)
         9                         -0.4073043             -11.0833 (LUMO)
        10                         -0.2883551              -7.8465
        11                         -0.2668298              -7.2608
        12                         -0.1555621              -4.2331
        13                         -0.1220538              -3.3213
        14                          0.2570820               6.9956
        15                          1.0143437              27.6017
        16                          1.1273369              30.6764
      -------------------------------------------------------------
                  HL-Gap            0.0387132 Eh            1.0534 eV

     #   Z        covCN         q      C6AA      Î±(0)
     1   6 C      0.985    -0.056    37.668    10.311
     2   6 C      1.966     0.056    29.656     8.794
     3   6 C      1.966     0.056    29.656     8.794
     4   6 C      0.985    -0.056    37.668    10.311

Wiberg/Mayer (AO) data.
largest (>0.10) Wiberg bond orders for each atom
          total WBO             WBO to atom ...

molecular dipole:
                 x           y           z       tot (Debye)
 q only:        0.000       0.000       0.000
   full:        0.000       0.000       0.000       0.000

 projected vibrational frequencies (cm-1)
eigval :       -0.00    -0.00    -0.00    -0.00    -0.00     0.00
eigval :      239.47   247.06   334.50  1024.04  1914.46  2096.37

   temp. (K)  partition function   enthalpy   heat capacity  entropy
                                   cal/mol     cal/K/mol   cal/K/mol   J/K/mol
  10.00  VIB   1.00                    0.000      0.000     -0.006
         ROT   23.4                   29.809      2.981      9.243
         INT   23.4                   29.809      2.981      9.237
         TR   0.198E+25               49.681      4.968     20.657
         TOT                          79.4904     7.9490    29.8941   125.0771

       T/K    H(0)-H(T)+PV         H(T)/Eh          T*S/Eh         G(T)/Eh
   ------------------------------------------------------------------------
    298.15    0.518251E-02    0.185233E-01    0.293461E-01   -0.108229E-01
    120.00    0.167514E-02    0.150159E-01    0.969882E-02    0.531707E-02
    100.00    0.134832E-02    0.146891E-01    0.778479E-02    0.690429E-02
     80.00    0.104543E-02    0.143862E-01    0.595791E-02    0.842827E-02
     60.00    0.767085E-03    0.141078E-01    0.422867E-02    0.987916E-02
     40.00    0.507067E-03    0.138478E-01    0.260856E-02    0.112393E-01
     20.00    0.253352E-03    0.135941E-01    0.112843E-02    0.124657E-01
     10.00    0.126676E-03    0.134674E-01    0.476393E-03    0.129910E-01 (used)
   ------------------------------------------------------------------------

         :::::::::::::::::::::::::::::::::::::::::::::::::::::
         ::                  THERMODYNAMIC                  ::
         :::::::::::::::::::::::::::::::::::::::::::::::::::::
         :: total free energy          -8.187626940512 Eh   ::
         ::.................................................::
         :: total energy               -8.200617970029 Eh   ::
         :: zero point energy           0.013340746948 Eh   ::
         :: G(RRHO) w/o ZPVE           -0.000349717431 Eh   ::
         :: G(RRHO) contrib.            0.012991029517 Eh   ::
         :::::::::::::::::::::::::::::::::::::::::::::::::::::

           -------------------------------------------------
          | TOTAL ENERGY               -8.200617970029 Eh   |
          | TOTAL ENTHALPY             -8.187150547065 Eh   |
          | TOTAL FREE ENERGY          -8.187626940512 Eh   |
          | GRADIENT NORM               0.000300118717 Eh/Î± |
          | HOMO-LUMO GAP               1.053439101030 eV   |
           -------------------------------------------------

 * finished run on 2020/05/12 at 14:38:39.700
