   * xtb version 6.2.2 (9d81278992624c895f80dd42a50cac0aa55982e2) compiled by '@Darwin' on 04/03/2020
          program call               : xtb --input C4N1_30_S_1.input C4N1_30_S_1.xyz --ohess --molden --namespace C4N1_30_S_1 output.out
          number of atoms            :                     5
          number of electrons        :                    21
          charge                     :                     0
          spin                       :                   0.5

   ID    Z sym.   atoms
    1    7 N      1
    2    6 C      2-5

          :  Hamiltonian                  GFN2-xTB          :
 * total energy  :   -10.9878465 Eh     change        0.5857359E-10 Eh
 * total energy  :   -11.0420184 Eh     change       -0.5417196E-01 Eh
 * total energy  :   -11.0704378 Eh     change       -0.2841937E-01 Eh
 * total energy  :   -11.0781700 Eh     change       -0.7732217E-02 Eh
 * total energy  :   -11.0828233 Eh     change       -0.4653249E-02 Eh
 * total energy  :   -11.0855214 Eh     change       -0.2698150E-02 Eh
 * total energy  :   -11.0875221 Eh     change       -0.2000717E-02 Eh
 * total energy  :   -11.0878961 Eh     change       -0.3739725E-03 Eh
 * total energy  :   -11.0880315 Eh     change       -0.1353997E-03 Eh
 * total energy  :   -11.0880472 Eh     change       -0.1572749E-04 Eh
 * total energy  :   -11.0880498 Eh     change       -0.2577811E-05 Eh
 * total energy  :   -11.0880513 Eh     change       -0.1502947E-05 Eh
   *** GEOMETRY OPTIMIZATION CONVERGED AFTER 12 ITERATIONS ***

 final structure:
================
5
 xtb: 6.2.2 (9d81278992624c895f80dd42a50cac0aa55982e2)
N        -1.07054801295460    0.79075201121159   -0.04796084978317
C         0.25023965057296    0.77376369484270    0.01827517719681
C         0.37203873550993   -0.96551537030005   -0.32256791957058
C         1.30818634076892   -0.08549061399197    0.20587666077477
C        -0.85991671389721   -0.51351072176226    0.14637693138218

          :  Hamiltonian                  GFN2-xTB          :
         :: gradient norm              0.000895215249 Eh/a0 ::
         :: HOMO-LUMO gap              1.643342793928 eV    ::
         :: SCC energy               -11.253612024251 Eh    ::
         :: -> dispersion             -0.002698381413 Eh    ::
         :: repulsion energy           0.165560702243 Eh    ::

    * Orbital Energies and Occupations

         #    Occupation            Energy/Eh            Energy/eV
      -------------------------------------------------------------
         1        2.0000           -0.7587368             -20.6463
         2        2.0000           -0.6956509             -18.9296
         3        2.0000           -0.6489562             -17.6590
         4        2.0000           -0.6018428             -16.3770
         5        2.0000           -0.5850415             -15.9198
         6        2.0000           -0.5725267             -15.5792
         7        2.0000           -0.5131460             -13.9634
         8        2.0000           -0.4751251             -12.9288
         9        2.0000           -0.4578800             -12.4595
        10        2.0000           -0.4386774             -11.9370
        11        1.0000           -0.4088634             -11.1257 (HOMO)
        12                         -0.3484717              -9.4824 (LUMO)
        13                         -0.3005735              -8.1790
        14                         -0.2559374              -6.9644
        15                         -0.2326585              -6.3310
        16                          0.0964061               2.6233
        17                          0.2384720               6.4892
        18                          0.2809616               7.6454
        19                          0.3254695               8.8565
        20                          0.5774077              15.7121
      -------------------------------------------------------------
                  HL-Gap            0.0603918 Eh            1.6433 eV

     #   Z        covCN         q      C6AA      Î±(0)
     1   7 N      1.849    -0.138    24.780     7.378
Molecule has no symmetry elements
It seems to be the C1 point group
     2   6 C      3.679     0.143    18.477     6.157
     3   6 C      2.854    -0.001    28.053     8.681
     4   6 C      2.090    -0.068    32.745     9.245
     5   6 C      2.943     0.065    26.537     8.449

Wiberg/Mayer (AO) data.
largest (>0.10) Wiberg bond orders for each atom
          total WBO             WBO to atom ...

molecular dipole:
                 x           y           z       tot (Debye)
 q only:        0.072      -0.048       0.010
   full:        0.065      -0.035      -0.061       0.245

 projected vibrational frequencies (cm-1)
eigval :       -0.00    -0.00     0.00     0.00     0.00     0.00
eigval :      232.77   408.22   522.20   687.13   921.74  1008.51
eigval :     1063.68  1328.38  1563.25

   temp. (K)  partition function   enthalpy   heat capacity  entropy
                                   cal/mol     cal/K/mol   cal/K/mol   J/K/mol
  10.00  VIB   1.00                    0.000      0.000     -0.004
         ROT   162.                   29.809      2.981     13.087
         INT   162.                   29.809      2.981     13.083
         TR   0.290E+25               49.681      4.968     21.419
         TOT                          79.4904     7.9490    34.5028   144.3598

       T/K    H(0)-H(T)+PV         H(T)/Eh          T*S/Eh         G(T)/Eh
   ------------------------------------------------------------------------
    298.15    0.504350E-02    0.226671E-01    0.311340E-01   -0.846687E-02
    120.00    0.160898E-02    0.192326E-01    0.104918E-01    0.874075E-02
    100.00    0.131208E-02    0.189357E-01    0.847283E-02    0.104628E-01
     80.00    0.103120E-02    0.186548E-01    0.652785E-02    0.121269E-01
     60.00    0.764179E-03    0.183878E-01    0.466571E-02    0.137221E-01
     40.00    0.506950E-03    0.181305E-01    0.290207E-02    0.152285E-01
     20.00    0.253352E-03    0.178769E-01    0.127529E-02    0.166017E-01
     10.00    0.126676E-03    0.177503E-01    0.549837E-03    0.172004E-01 (used)
   ------------------------------------------------------------------------

         :::::::::::::::::::::::::::::::::::::::::::::::::::::
         ::                  THERMODYNAMIC                  ::
         :::::::::::::::::::::::::::::::::::::::::::::::::::::
         :: total free energy         -11.070850861275 Eh   ::
         ::.................................................::
         :: total energy              -11.088051296424 Eh   ::
         :: zero point energy           0.017623596396 Eh   ::
         :: G(RRHO) w/o ZPVE           -0.000423161247 Eh   ::
         :: G(RRHO) contrib.            0.017200435149 Eh   ::
         :::::::::::::::::::::::::::::::::::::::::::::::::::::

           -------------------------------------------------
          | TOTAL ENERGY              -11.088051296424 Eh   |
          | TOTAL ENTHALPY            -11.070301024012 Eh   |
          | TOTAL FREE ENERGY         -11.070850861275 Eh   |
          | GRADIENT NORM               0.000895261553 Eh/Î± |
          | HOMO-LUMO GAP               1.643343575735 eV   |
           -------------------------------------------------

 * finished run on 2020/05/12 at 11:44:11.507
