   * xtb version 6.2.2 (9d81278992624c895f80dd42a50cac0aa55982e2) compiled by '@Darwin' on 04/03/2020
          program call               : xtb --input H2C2N1_2_S_1.input H2C2N1_2_S_1.xyz --ohess --molden --namespace H2C2N1_2_S_1 output.out
          number of atoms            :                     5
          number of electrons        :                    15
          charge                     :                     0
          spin                       :                   0.5

   ID    Z sym.   atoms
    1    6 C      1, 3
    2    7 N      2
    3    1 H      4, 5

          :  Hamiltonian                  GFN2-xTB          :
 * total energy  :    -7.8860421 Eh     change       -0.1303926E-08 Eh
 * total energy  :    -7.9449003 Eh     change       -0.5885825E-01 Eh
 * total energy  :    -7.9382377 Eh     change        0.6662640E-02 Eh
 * total energy  :    -7.9666420 Eh     change       -0.2840433E-01 Eh
 * total energy  :    -7.9781927 Eh     change       -0.1155068E-01 Eh
 * total energy  :    -8.0038797 Eh     change       -0.2568698E-01 Eh
 * total energy  :    -8.0263865 Eh     change       -0.2250684E-01 Eh
 * total energy  :    -8.0291988 Eh     change       -0.2812329E-02 Eh
 * total energy  :    -8.0257786 Eh     change        0.3420266E-02 Eh
 * total energy  :    -8.0330910 Eh     change       -0.7312483E-02 Eh
 * total energy  :    -8.0363445 Eh     change       -0.5658307E-03 Eh
 * total energy  :    -8.0370012 Eh     change       -0.6567558E-03 Eh
 * total energy  :    -8.0372725 Eh     change       -0.2712624E-03 Eh
 * total energy  :    -8.0374909 Eh     change       -0.2184476E-03 Eh
 * total energy  :    -8.0377247 Eh     change       -0.2337427E-03 Eh
 * total energy  :    -8.0378217 Eh     change       -0.9699821E-04 Eh
 * total energy  :    -8.0378762 Eh     change       -0.5456593E-04 Eh
 * total energy  :    -8.0378892 Eh     change       -0.1298086E-04 Eh
 * total energy  :    -8.0378919 Eh     change       -0.2728679E-05 Eh
   *** GEOMETRY OPTIMIZATION CONVERGED AFTER 24 ITERATIONS ***

 final structure:
================
5
 xtb: 6.2.2 (9d81278992624c895f80dd42a50cac0aa55982e2)
C        -0.55083236803485   -0.34685943095338   -0.01638979798784
N        -0.57568002794467    1.01916226277475    0.19812838514624
C         0.63046030622600    0.22157383540733   -0.00893114263475
H        -1.18586857735212   -1.19364291107694   -0.10520481163643
H         1.68192066710565    0.29976624384824   -0.06760163288723

          :  Hamiltonian                  GFN2-xTB          :
         :: gradient norm              0.000525193760 Eh/a0 ::
         :: HOMO-LUMO gap              1.471762405937 eV    ::
         :: SCC energy                -8.164987651598 Eh    ::
         :: -> dispersion             -0.001501708871 Eh    ::
         :: repulsion energy           0.127095682635 Eh    ::

    * Orbital Energies and Occupations

         #    Occupation            Energy/Eh            Energy/eV
      -------------------------------------------------------------
         1        2.0000           -0.6918393             -18.8259
         2        2.0000           -0.5901625             -16.0591
         3        2.0000           -0.5787887             -15.7496
         4        2.0000           -0.5150318             -14.0147
         5        2.0000           -0.5136032             -13.9759
         6        2.0000           -0.4608144             -12.5394
         7        2.0000           -0.4169087             -11.3447
         8        1.0000           -0.3091151              -8.4115 (HOMO)
         9                         -0.2550288              -6.9397 (LUMO)
        10                         -0.0493538              -1.3430
        11                          0.0548855               1.4935
        12                          0.0860498               2.3415
        13                          0.3197796               8.7016
        14                          0.8599070              23.3993
      -------------------------------------------------------------
Molecule has the following symmetry elements: (sigma)
It seems to be the Cs point group
                  HL-Gap            0.0540863 Eh            1.4718 eV

     #   Z        covCN         q      C6AA      Î±(0)
     1   6 C      2.817     0.087    26.051     8.363
     2   7 N      1.816    -0.277    28.030     7.844
     3   6 C      2.815     0.041    27.074     8.525
     4   1 H      0.927     0.070     2.083     2.257
     5   1 H      0.928     0.079     1.989     2.206

Wiberg/Mayer (AO) data.
largest (>0.10) Wiberg bond orders for each atom
          total WBO             WBO to atom ...

molecular dipole:
                 x           y           z       tot (Debye)
 q only:        0.353      -0.687      -0.131
   full:        0.522      -1.051      -0.199       3.027

 projected vibrational frequencies (cm-1)
eigval :       -0.00    -0.00    -0.00    -0.00     0.00     0.00
eigval :      352.43   513.08   749.69   814.70   905.52  1265.23
eigval :     1747.76  3232.04  3301.02

   temp. (K)  partition function   enthalpy   heat capacity  entropy
                                   cal/mol     cal/K/mol   cal/K/mol   J/K/mol
  10.00  VIB   1.00                    0.000      0.000     -0.001
         ROT   41.0                   29.809      2.981     10.359
         INT   41.0                   29.809      2.981     10.358
         TR   0.151E+25               49.681      4.968     20.115
         TOT                          79.4904     7.9490    30.4723   127.4962

       T/K    H(0)-H(T)+PV         H(T)/Eh          T*S/Eh         G(T)/Eh
   ------------------------------------------------------------------------
    298.15    0.458607E-02    0.339322E-01    0.284387E-01    0.549349E-02
    120.00    0.154964E-02    0.308958E-01    0.963973E-02    0.212561E-01
    100.00    0.127847E-02    0.306246E-01    0.778611E-02    0.228385E-01
     80.00    0.101649E-02    0.303626E-01    0.599523E-02    0.243674E-01
     60.00    0.760410E-03    0.301066E-01    0.427555E-02    0.258310E-01
     40.00    0.506709E-03    0.298529E-01    0.264471E-02    0.272082E-01
     20.00    0.253352E-03    0.295995E-01    0.114678E-02    0.284527E-01
     10.00    0.126676E-03    0.294728E-01    0.485607E-03    0.289872E-01 (used)
   ------------------------------------------------------------------------

         :::::::::::::::::::::::::::::::::::::::::::::::::::::
         ::                  THERMODYNAMIC                  ::
         :::::::::::::::::::::::::::::::::::::::::::::::::::::
         :: total free energy          -8.008904715425 Eh   ::
         ::.................................................::
         :: total energy               -8.037891939553 Eh   ::
         :: zero point energy           0.029346155590 Eh   ::
         :: G(RRHO) w/o ZPVE           -0.000358931462 Eh   ::
         :: G(RRHO) contrib.            0.028987224128 Eh   ::
         :::::::::::::::::::::::::::::::::::::::::::::::::::::

           -------------------------------------------------
          | TOTAL ENERGY               -8.037891939553 Eh   |
          | TOTAL ENTHALPY             -8.008419107948 Eh   |
          | TOTAL FREE ENERGY          -8.008904715425 Eh   |
          | GRADIENT NORM               0.000524903468 Eh/Î± |
          | HOMO-LUMO GAP               1.471762427316 eV   |
           -------------------------------------------------

 * finished run on 2020/05/12 at 11:44:45.678
