   * xtb version 6.2.2 (9d81278992624c895f80dd42a50cac0aa55982e2) compiled by '@Darwin' on 04/03/2020
          program call               : xtb --input H1C1N1_0_S_2.input H1C1N1_0_S_2.xyz --ohess --molden --namespace H1C1N1_0_S_2 output.out
          number of atoms            :                     3
          number of electrons        :                    10
          charge                     :                     0
          spin                       :                   1.0

   ID    Z sym.   atoms
    1    6 C      1
    2    7 N      2
    3    1 H      3

          :  Hamiltonian                  GFN2-xTB          :
 * total energy  :    -5.2719223 Eh     change        0.1075113E-09 Eh
 * total energy  :    -5.3175690 Eh     change       -0.4564670E-01 Eh
 * total energy  :    -5.3073395 Eh     change        0.1022945E-01 Eh
 * total energy  :    -5.3225474 Eh     change       -0.1520783E-01 Eh
 * total energy  :    -5.3229342 Eh     change       -0.3868028E-03 Eh
 * total energy  :    -5.3229744 Eh     change       -0.4018607E-04 Eh
 * total energy  :    -5.3229760 Eh     change       -0.1602067E-05 Eh
   *** GEOMETRY OPTIMIZATION CONVERGED AFTER 7 ITERATIONS ***

 final structure:
================
3
 xtb: 6.2.2 (9d81278992624c895f80dd42a50cac0aa55982e2)
C        -0.06859659106934    0.43850452905323    0.00000000000000
N         0.99909612152569   -0.14199678789998    0.00000000000000
H        -0.93049853045635   -0.29650674115325    0.00000000000000

          :  Hamiltonian                  GFN2-xTB          :
         :: gradient norm              0.000295189856 Eh/a0 ::
         :: HOMO-LUMO gap              1.681056208480 eV    ::
         :: SCC energy                -5.397326069431 Eh    ::
         :: -> dispersion             -0.000483491522 Eh    ::
         :: repulsion energy           0.074350112140 Eh    ::

    * Orbital Energies and Occupations

         #    Occupation            Energy/Eh            Energy/eV
      -------------------------------------------------------------
         1        2.0000           -0.6635493             -18.0561
         2        2.0000           -0.5671975             -15.4342
         3        2.0000           -0.5036255             -13.7043
         4        2.0000           -0.4957063             -13.4889
         5        1.0000           -0.4522943             -12.3076
         6        1.0000           -0.3196487              -8.6981 (HOMO)
         7                         -0.2578710              -7.0170 (LUMO)
         8                          0.1234233               3.3585
         9                          0.5911543              16.0861
      -------------------------------------------------------------
                  HL-Gap            0.0617777 Eh            1.6811 eV

     #   Z        covCN         q      C6AA      Î±(0)
     1   6 C      1.827    -0.011    31.473     9.064
     2   7 N      0.910    -0.116    23.533     7.016
     3   1 H      0.917     0.127     1.557     1.951

Wiberg/Mayer (AO) data.
largest (>0.10) Wiberg bond orders for each atom
          total WBO             WBO to atom ...

molecular dipole:
                 x           y           z       tot (Debye)
 q only:       -0.441      -0.050       0.000
   full:       -0.598      -0.116       0.000       1.548

 projected vibrational frequencies (cm-1)
eigval :       -0.00    -0.00    -0.00    -0.00     0.00     0.00
eigval :     1093.46  1866.55  2395.69

   temp. (K)  partition function   enthalpy   heat capacity  entropy
                                   cal/mol     cal/K/mol   cal/K/mol   J/K/mol
  10.00  VIB   1.00                    0.000      0.000     -0.000
         ROT   5.17                   29.809      2.981      6.247
         INT   5.17                   29.809      2.981      6.247
         TR   0.835E+24               49.681      4.968     18.943
         TOT                          79.4904     7.9490    25.1896   105.3934

       T/K    H(0)-H(T)+PV         H(T)/Eh          T*S/Eh         G(T)/Eh
   ------------------------------------------------------------------------
    298.15    0.380358E-02    0.160047E-01    0.248186E-01   -0.881389E-02
    120.00    0.152012E-02    0.137213E-01    0.859326E-02    0.512802E-02
    100.00    0.126676E-02    0.134679E-01    0.693016E-02    0.653776E-02
     80.00    0.101341E-02    0.132146E-01    0.531806E-02    0.789651E-02
     60.00    0.760056E-03    0.129612E-01    0.376996E-02    0.919126E-02
     40.00    0.506704E-03    0.127079E-01    0.230792E-02    0.103999E-01
     20.00    0.253352E-03    0.124545E-01    0.978401E-03    0.114761E-01
     10.00    0.126676E-03    0.123278E-01    0.401422E-03    0.119264E-01 (used)
   ------------------------------------------------------------------------

         :::::::::::::::::::::::::::::::::::::::::::::::::::::
         ::                  THERMODYNAMIC                  ::
         :::::::::::::::::::::::::::::::::::::::::::::::::::::
         :: total free energy          -5.311049542003 Eh   ::
         ::.................................................::
         :: total energy               -5.322975957160 Eh   ::
         :: zero point energy           0.012201161357 Eh   ::
         :: G(RRHO) w/o ZPVE           -0.000274746201 Eh   ::
         :: G(RRHO) contrib.            0.011926415156 Eh   ::
         :::::::::::::::::::::::::::::::::::::::::::::::::::::

           -------------------------------------------------
          | TOTAL ENERGY               -5.322975957160 Eh   |
          | TOTAL ENTHALPY             -5.310648119787 Eh   |
          | TOTAL FREE ENERGY          -5.311049542003 Eh   |
          | GRADIENT NORM               0.000295189373 Eh/Î± |
          | HOMO-LUMO GAP               1.681056896115 eV   |
           -------------------------------------------------

 * finished run on 2020/05/12 at 11:44:24.959
