   * xtb version 6.2.2 (9d81278992624c895f80dd42a50cac0aa55982e2) compiled by '@Darwin' on 04/03/2020
          program call               : xtb --input C4N1_55_S_1.input C4N1_55_S_1.xyz --ohess --molden --namespace C4N1_55_S_1 output.out
          number of atoms            :                     5
          number of electrons        :                    21
          charge                     :                     0
          spin                       :                   0.5

   ID    Z sym.   atoms
    1    7 N      1
    2    6 C      2-5

          :  Hamiltonian                  GFN2-xTB          :
 * total energy  :   -10.9841809 Eh     change        0.7226042E-09 Eh
 * total energy  :   -11.0215240 Eh     change       -0.3734310E-01 Eh
 * total energy  :   -11.0574738 Eh     change       -0.3594979E-01 Eh
 * total energy  :   -11.0613894 Eh     change       -0.3915580E-02 Eh
 * total energy  :   -11.0625435 Eh     change       -0.1154125E-02 Eh
 * total energy  :   -11.0626925 Eh     change       -0.1490029E-03 Eh
 * total energy  :   -11.0626930 Eh     change       -0.5507365E-06 Eh
   *** GEOMETRY OPTIMIZATION CONVERGED AFTER 7 ITERATIONS ***

 final structure:
================
5
 xtb: 6.2.2 (9d81278992624c895f80dd42a50cac0aa55982e2)
N         0.26573002699172   -0.97227414297518    0.02279479639229
C        -0.68715295269495   -0.22152564898566   -0.69572283122102
C        -0.27901502873167    1.02085717357076   -0.02391703179050
C        -0.23515780103805   -0.05888235490620    0.97289073204968
C         0.93559675547294    0.23182497329629   -0.27604466543045

          :  Hamiltonian                  GFN2-xTB          :
         :: gradient norm              0.000497291055 Eh/a0 ::
         :: HOMO-LUMO gap              3.156753131124 eV    ::
         :: SCC energy               -11.178271735640 Eh    ::
         :: -> dispersion             -0.002327279812 Eh    ::
         :: repulsion energy           0.115578675053 Eh    ::

    * Orbital Energies and Occupations

         #    Occupation            Energy/Eh            Energy/eV
      -------------------------------------------------------------
         1        2.0000           -0.7941541             -21.6100
         2        2.0000           -0.6760990             -18.3976
         3        2.0000           -0.6646001             -18.0847
         4        2.0000           -0.6645989             -18.0847
         5        2.0000           -0.5599065             -15.2358
         6        2.0000           -0.5599030             -15.2357
         7        2.0000           -0.5314346             -14.4611
         8        2.0000           -0.4787064             -13.0263
         9        2.0000           -0.4699042             -12.7867
        10        2.0000           -0.4699037             -12.7867
        11        1.0000           -0.4287128             -11.6659 (HOMO)
        12                         -0.3127039              -8.5091 (LUMO)
        13                         -0.3126970              -8.5089
        14                         -0.2478420              -6.7441
        15                         -0.0016446              -0.0448
        16                         -0.0016305              -0.0444
        17                          0.0669890               1.8229
        18                          0.0669905               1.8229
        19                          0.0920236               2.5041
        20                          0.3664675               9.9721
      -------------------------------------------------------------
                  HL-Gap            0.1160089 Eh            3.1568 eV

     #   Z        covCN         q      C6AA      Î±(0)
     1   7 N      2.960     0.014    21.006     6.807
     2   6 C      3.690    -0.022    21.156     6.583
     3   6 C      3.169     0.052    26.477     8.407
     4   6 C      3.690    -0.022    21.156     6.583
     5   6 C      3.690    -0.022    21.156     6.583

Wiberg/Mayer (AO) data.
largest (>0.10) Wiberg bond orders for each atom
          total WBO             WBO to atom ...

molecular dipole:
                 x           y           z       tot (Debye)
 q only:       -0.021       0.077      -0.002
   full:       -0.006       0.023      -0.001       0.060

 projected vibrational frequencies (cm-1)
eigval :       -0.00    -0.00    -0.00    -0.00     0.00     0.00
eigval :      404.94   405.56   821.76   848.91   848.96  1039.13
eigval :     1039.82  1277.86  1393.76

   temp. (K)  partition function   enthalpy   heat capacity  entropy
                                   cal/mol     cal/K/mol   cal/K/mol   J/K/mol
  10.00  VIB   1.00                    0.000      0.000     -0.001
         ROT   43.1                   29.809      2.981     10.458
         INT   43.1                   29.809      2.981     10.457
         TR   0.290E+25               49.681      4.968     21.419
         TOT                          79.4904     7.9490    31.8765   133.3711

       T/K    H(0)-H(T)+PV         H(T)/Eh          T*S/Eh         G(T)/Eh
   ------------------------------------------------------------------------
    298.15    0.467168E-02    0.230809E-01    0.292130E-01   -0.613207E-02
    120.00    0.154952E-02    0.199588E-01    0.990760E-02    0.100511E-01
    100.00    0.127770E-02    0.196869E-01    0.800877E-02    0.116782E-01
     80.00    0.101594E-02    0.194252E-01    0.617356E-02    0.132516E-01
     60.00    0.760278E-03    0.191695E-01    0.440966E-02    0.147599E-01
     40.00    0.506706E-03    0.189159E-01    0.273421E-02    0.161817E-01
     20.00    0.253352E-03    0.186626E-01    0.119154E-02    0.174710E-01
     10.00    0.126676E-03    0.185359E-01    0.507984E-03    0.180279E-01 (used)
   ------------------------------------------------------------------------

         :::::::::::::::::::::::::::::::::::::::::::::::::::::
         ::                  THERMODYNAMIC                  ::
         :::::::::::::::::::::::::::::::::::::::::::::::::::::
         :: total free energy         -11.044665123493 Eh   ::
         ::.................................................::
         :: total energy              -11.062693046737 Eh   ::
         :: zero point energy           0.018409230935 Eh   ::
         :: G(RRHO) w/o ZPVE           -0.000381307692 Eh   ::
         :: G(RRHO) contrib.            0.018027923243 Eh   ::
         :::::::::::::::::::::::::::::::::::::::::::::::::::::

           -------------------------------------------------
          | TOTAL ENERGY              -11.062693046737 Eh   |
          | TOTAL ENTHALPY            -11.044157139786 Eh   |
          | TOTAL FREE ENERGY         -11.044665123493 Eh   |
          | GRADIENT NORM               0.000497622071 Eh/Î± |
          | HOMO-LUMO GAP               3.156761506170 eV   |
           -------------------------------------------------

 * finished run on 2020/05/12 at 11:44:23.111
