   * xtb version 6.2.2 (9d81278992624c895f80dd42a50cac0aa55982e2) compiled by '@Darwin' on 04/03/2020
          program call               : xtb --input C4N1_19_S_3.input C4N1_19_S_3.xyz --ohess --molden --namespace C4N1_19_S_3 output.out
          number of atoms            :                     5
          number of electrons        :                    21
          charge                     :                     0
          spin                       :                   1.5

   ID    Z sym.   atoms
    1    7 N      1
    2    6 C      2-5

          :  Hamiltonian                  GFN2-xTB          :
 * total energy  :   -10.8933518 Eh     change       -0.1969180E-09 Eh
 * total energy  :   -10.9755510 Eh     change       -0.8219922E-01 Eh
 * total energy  :   -10.9335885 Eh     change        0.4196250E-01 Eh
 * total energy  :   -11.0208020 Eh     change       -0.8721348E-01 Eh
 * total energy  :   -11.0281642 Eh     change       -0.7362262E-02 Eh
 * total energy  :   -11.0311243 Eh     change       -0.2960068E-02 Eh
 * total energy  :   -11.0337286 Eh     change       -0.2604301E-02 Eh
 * total energy  :   -11.0345707 Eh     change       -0.8421040E-03 Eh
 * total energy  :   -11.0349174 Eh     change       -0.3466508E-03 Eh
 * total energy  :   -11.0350109 Eh     change       -0.9356372E-04 Eh
 * total energy  :   -11.0357740 Eh     change       -0.5669459E-04 Eh
 * total energy  :   -11.0358068 Eh     change       -0.3279332E-04 Eh
 * total energy  :   -11.0358211 Eh     change       -0.1431912E-04 Eh
 * total energy  :   -11.0358438 Eh     change       -0.2268725E-04 Eh
 * total energy  :   -11.0358485 Eh     change       -0.4728901E-05 Eh
 * total energy  :   -11.0358533 Eh     change       -0.4785964E-05 Eh
 * total energy  :   -11.0358228 Eh     change        0.3047500E-04 Eh
 * total energy  :   -11.0358535 Eh     change       -0.3070075E-04 Eh
 * total energy  :   -11.0358568 Eh     change       -0.3308899E-05 Eh
   *** GEOMETRY OPTIMIZATION CONVERGED AFTER 24 ITERATIONS ***

 final structure:
================
5
 xtb: 6.2.2 (9d81278992624c895f80dd42a50cac0aa55982e2)
N        -1.51570019053268    0.33977983234587   -0.69382116824369
C        -0.23999656462138   -0.17812537526846    0.06044668282775
C         1.04102017201610    0.08916186721397    0.24834852882831
C        -1.49807481114446   -0.69986902503752    0.05141657087200
C         2.21275039428242    0.44905270074613    0.33360938571562

          :  Hamiltonian                  GFN2-xTB          :
         :: gradient norm              0.000472636006 Eh/a0 ::
         :: HOMO-LUMO gap              2.172173376886 eV    ::
         :: SCC energy               -11.265516049441 Eh    ::
         :: -> dispersion             -0.002768116370 Eh    ::
         :: repulsion energy           0.229659339376 Eh    ::

    * Orbital Energies and Occupations

         #    Occupation            Energy/Eh            Energy/eV
      -------------------------------------------------------------
         1        2.0000           -0.7215386             -19.6341
         2        2.0000           -0.6718352             -18.2816
         3        2.0000           -0.6305361             -17.1578
         4        2.0000           -0.5828400             -15.8599
         5        2.0000           -0.5537933             -15.0695
         6        2.0000           -0.5525747             -15.0363
         7        2.0000           -0.4914969             -13.3743
         8        2.0000           -0.4822264             -13.1220
         9        1.9877           -0.4473683             -12.1735
        10        1.0123           -0.4390405             -11.9469
        11        1.0000           -0.4017976             -10.9335
        12        1.0000           -0.3629173              -9.8755 (HOMO)
        13                         -0.2830916              -7.7033 (LUMO)
        14                         -0.2518095              -6.8521
        15                         -0.1441495              -3.9225
        16                         -0.0756685              -2.0590
        17                          0.0681617               1.8548
        18                          0.3371948               9.1755
        19                          0.6543946              17.8070
        20                          1.2459625              33.9044
      -------------------------------------------------------------
                  HL-Gap            0.0798257 Eh            2.1722 eV

     #   Z        covCN         q      C6AA      Î±(0)
     1   7 N      1.803    -0.148    24.970     7.403
     2   6 C      2.855     0.111    25.545     8.284
     3   6 C      1.962     0.016    30.651     8.941
     4   6 C      1.891     0.049    29.863     8.826
     5   6 C      0.983    -0.029    36.806    10.191

Wiberg/Mayer (AO) data.
largest (>0.10) Wiberg bond orders for each atom
          total WBO             WBO to atom ...

molecular dipole:
                 x           y           z       tot (Debye)
 q only:        0.144      -0.219       0.200
   full:        0.291      -0.275       0.284       1.247

 projected vibrational frequencies (cm-1)
eigval :       -0.00    -0.00    -0.00     0.00     0.00     0.00
eigval :      147.63   159.87   274.12   324.47   553.60   873.05
eigval :     1271.96  1810.46  1977.89

   temp. (K)  partition function   enthalpy   heat capacity  entropy
                                   cal/mol     cal/K/mol   cal/K/mol   J/K/mol
  10.00  VIB   1.00                    0.000      0.000     -0.024
         ROT   231.                   29.809      2.981     13.797
         INT   231.                   29.809      2.981     13.773
         TR   0.290E+25               49.681      4.968     21.419
         TOT                          79.4904     7.9490    35.1928   147.2467

       T/K    H(0)-H(T)+PV         H(T)/Eh          T*S/Eh         G(T)/Eh
   ------------------------------------------------------------------------
    298.15    0.615632E-02    0.229990E-01    0.337490E-01   -0.107500E-01
    120.00    0.186658E-02    0.187092E-01    0.110138E-01    0.769546E-02
    100.00    0.147882E-02    0.183215E-01    0.882537E-02    0.949609E-02
     80.00    0.112135E-02    0.179640E-01    0.674197E-02    0.112220E-01
     60.00    0.798627E-03    0.176413E-01    0.477868E-02    0.128626E-01
     40.00    0.512447E-03    0.173551E-01    0.295439E-02    0.144007E-01
     20.00    0.253376E-03    0.170960E-01    0.129778E-02    0.157982E-01
     10.00    0.126676E-03    0.169693E-01    0.560833E-03    0.164085E-01 (used)
   ------------------------------------------------------------------------

         :::::::::::::::::::::::::::::::::::::::::::::::::::::
         ::                  THERMODYNAMIC                  ::
         :::::::::::::::::::::::::::::::::::::::::::::::::::::
         :: total free energy         -11.019448338392 Eh   ::
         ::.................................................::
         :: total energy              -11.035856823982 Eh   ::
         :: zero point energy           0.016842642712 Eh   ::
         :: G(RRHO) w/o ZPVE           -0.000434157123 Eh   ::
         :: G(RRHO) contrib.            0.016408485589 Eh   ::
         :::::::::::::::::::::::::::::::::::::::::::::::::::::

           -------------------------------------------------
          | TOTAL ENERGY              -11.035856823982 Eh   |
          | TOTAL ENTHALPY            -11.018887505253 Eh   |
          | TOTAL FREE ENERGY         -11.019448338392 Eh   |
          | GRADIENT NORM               0.000473233724 Eh/Î± |
          | HOMO-LUMO GAP               2.172168458967 eV   |
           -------------------------------------------------

 * finished run on 2020/05/12 at 11:44:06.543
