   * xtb version 6.2.2 (9d81278992624c895f80dd42a50cac0aa55982e2) compiled by '@Darwin' on 04/03/2020
          program call               : xtb --input C3N1_4_S_1.input C3N1_4_S_1.xyz --ohess --molden --namespace C3N1_4_S_1 output.out
          number of atoms            :                     4
          number of electrons        :                    17
          charge                     :                     0
          spin                       :                   0.5

   ID    Z sym.   atoms
    1    6 C      1-3
    2    7 N      4

          :  Hamiltonian                  GFN2-xTB          :
 * total energy  :    -8.8949559 Eh     change        0.8792611E-09 Eh
 * total energy  :    -8.9597762 Eh     change       -0.6482028E-01 Eh
 * total energy  :    -8.9784838 Eh     change       -0.1870759E-01 Eh
 * total energy  :    -8.9924642 Eh     change       -0.1398041E-01 Eh
 * total energy  :    -8.9954991 Eh     change       -0.3034878E-02 Eh
 * total energy  :    -8.9965334 Eh     change       -0.1034311E-02 Eh
 * total energy  :    -8.9968755 Eh     change       -0.3420894E-03 Eh
 * total energy  :    -8.9969763 Eh     change       -0.1007766E-03 Eh
 * total energy  :    -8.9969990 Eh     change       -0.2273951E-04 Eh
 * total energy  :    -8.9970185 Eh     change       -0.1946255E-04 Eh
 * total energy  :    -8.9970201 Eh     change       -0.1584635E-05 Eh
   *** GEOMETRY OPTIMIZATION CONVERGED AFTER 11 ITERATIONS ***

 final structure:
================
4
 xtb: 6.2.2 (9d81278992624c895f80dd42a50cac0aa55982e2)
C         1.57888180578789   -0.03887262725031   -0.11864678900753
C         0.36207450538252    0.06364054204064    0.15269844347899
C        -1.02357990062628   -0.63681121773046   -0.06544522165283
N        -0.91737641054412    0.61204230294014    0.03139356718137

          :  Hamiltonian                  GFN2-xTB          :
         :: gradient norm              0.000458229035 Eh/a0 ::
         :: HOMO-LUMO gap              2.880948479278 eV    ::
         :: SCC energy                -9.151848165365 Eh    ::
         :: -> dispersion             -0.001815405829 Eh    ::
         :: repulsion energy           0.154828103415 Eh    ::

    * Orbital Energies and Occupations

         #    Occupation            Energy/Eh            Energy/eV
      -------------------------------------------------------------
         1        2.0000           -0.7467709             -20.3207
         2        2.0000           -0.6854466             -18.6520
         3        2.0000           -0.6131675             -16.6851
         4        2.0000           -0.5867347             -15.9659
         5        2.0000           -0.5755791             -15.6623
         6        2.0000           -0.4861686             -13.2293
         7        2.0000           -0.4717237             -12.8363
         8        1.8642           -0.4544054             -12.3650
         9        1.1358           -0.4508890             -12.2693 (HOMO)
        10                         -0.3450162              -9.3884 (LUMO)
        11                         -0.3104730              -8.4484
        12                         -0.2412480              -6.5647
        13                         -0.0753498              -2.0504
        14                          0.0654099               1.7799
        15                          0.4326988              11.7743
        16                          0.8591183              23.3778
      -------------------------------------------------------------
                  HL-Gap            0.1058728 Eh            2.8809 eV

     #   Z        covCN         q      C6AA      Î±(0)
     1   6 C      0.981    -0.094    38.898    10.476
     2   6 C      2.860     0.159    24.567     8.124
     3   6 C      1.881    -0.022    31.720     9.096
     4   7 N      1.820    -0.042    22.773     7.071

Wiberg/Mayer (AO) data.
largest (>0.10) Wiberg bond orders for each atom
          total WBO             WBO to atom ...

molecular dipole:
                 x           y           z       tot (Debye)
 q only:       -0.056       0.004       0.067
   full:       -0.164       0.127       0.223       0.773

 projected vibrational frequencies (cm-1)
eigval :       -0.00    -0.00    -0.00     0.00     0.00     0.00
eigval :      269.16   369.46   476.35   738.25  1292.11  1829.97

   temp. (K)  partition function   enthalpy   heat capacity  entropy
                                   cal/mol     cal/K/mol   cal/K/mol   J/K/mol
  10.00  VIB   1.00                    0.000      0.000     -0.003
         ROT   93.3                   29.809      2.981     11.995
         INT   93.3                   29.809      2.981     11.992
         TR   0.210E+25               49.681      4.968     20.778
         TOT                          79.4904     7.9490    32.7708   137.1131

       T/K    H(0)-H(T)+PV         H(T)/Eh          T*S/Eh         G(T)/Eh
   ------------------------------------------------------------------------
    298.15    0.493047E-02    0.162651E-01    0.301479E-01   -0.138828E-01
    120.00    0.159876E-02    0.129334E-01    0.101436E-01    0.278973E-02
    100.00    0.130350E-02    0.126381E-01    0.818417E-02    0.445393E-02
     80.00    0.102579E-02    0.123604E-01    0.629976E-02    0.606062E-02
     60.00    0.762252E-03    0.120968E-01    0.449765E-02    0.759920E-02
     40.00    0.506784E-03    0.118414E-01    0.279141E-02    0.904997E-02
     20.00    0.253352E-03    0.115879E-01    0.122007E-02    0.103679E-01
     10.00    0.126676E-03    0.114613E-01    0.522236E-03    0.109390E-01 (used)
   ------------------------------------------------------------------------

         :::::::::::::::::::::::::::::::::::::::::::::::::::::
         ::                  THERMODYNAMIC                  ::
         :::::::::::::::::::::::::::::::::::::::::::::::::::::
         :: total free energy          -8.986081024126 Eh   ::
         ::.................................................::
         :: total energy               -8.997020055205 Eh   ::
         :: zero point energy           0.011334591444 Eh   ::
         :: G(RRHO) w/o ZPVE           -0.000395560365 Eh   ::
         :: G(RRHO) contrib.            0.010939031079 Eh   ::
         :::::::::::::::::::::::::::::::::::::::::::::::::::::

           -------------------------------------------------
          | TOTAL ENERGY               -8.997020055205 Eh   |
          | TOTAL ENTHALPY             -8.985558787746 Eh   |
          | TOTAL FREE ENERGY          -8.986081024126 Eh   |
          | GRADIENT NORM               0.000456904366 Eh/Î± |
          | HOMO-LUMO GAP               2.880945603260 eV   |
           -------------------------------------------------

 * finished run on 2020/05/12 at 11:45:05.071
