 Gaussian 16, Revision B.01,
 Gaussian 16:  ES64L-G16RevB.01 20-Dec-2017

 ----------------------
 #P CCSD(T)/aug-cc-pvtz
 ----------------------

 -----
 Title
 -----
 Symbolic Z-matrix:
 Charge =  1 Multiplicity = 3

                         Standard orientation:
 ---------------------------------------------------------------------
 Center     Atomic      Atomic             Coordinates (Angstroms)
 Number     Number       Type             X           Y           Z
 ---------------------------------------------------------------------
      1          9           0        0.000000    0.000000    0.000000
 ---------------------------------------------------------------------

 SCF Done:  E(UHF) =  -98.8308774683     A.U. after    9 cycles
 E2 =    -0.1450110521D+00 EUMP2 =    -0.98975888520406D+02
 CCSD(T)
 CCSD(T)= -0.98993365802D+02

 Unable to determine electronic state:  an orbital has unidentified symmetry.
 Alpha  occ. eigenvalues --  -27.19640  -2.40217  -1.53663  -1.53663  -1.41535
 Alpha virt. eigenvalues --   -0.12238  -0.07033  -0.07033  -0.06095   0.44404
 Alpha virt. eigenvalues --    0.44404   0.46369   0.46369   0.47037   0.61414
 Alpha virt. eigenvalues --    0.61414   0.65514   1.07831   2.16069   2.16069

  Beta  occ. eigenvalues --  -27.09013  -1.99583  -1.31006
  Beta virt. eigenvalues --   -0.49447  -0.49447  -0.10800  -0.05778  -0.04131
  Beta virt. eigenvalues --   -0.04131   0.48174   0.48174   0.48176   0.48176
  Beta virt. eigenvalues --    0.48217   0.67772   0.74917   0.74917   1.15970

 Mulliken charges and spin densities:
               1          2
     1  F    1.000000   2.000000
 Sum of Mulliken charges =   1.00000   2.00000

 Dipole moment (field-independent basis, Debye):
    X=              0.0000    Y=              0.0000    Z=              0.0000  Tot=              0.0000
 Quadrupole moment (field-independent basis, Debye-Ang):
   XX=             -2.9575   YY=             -3.6762   ZZ=             -2.9575
   XY=              0.0000   XZ=              0.0000   YZ=             -0.0000

 SDQ=-98.9908202\CCSD=-98.9911654\CCSD(T)=-98.9933658\S2=2.005286\S2-1=
 Normal termination of Gaussian 16 at Mon Oct  5 21:38:32 2020.
