   * xtb version 6.2.2 (9d81278992624c895f80dd42a50cac0aa55982e2) compiled by '@Darwin' on 04/03/2020
          program call               : xtb --input H1C1N1_0_S_0.input H1C1N1_0_S_0.xyz --ohess --molden --namespace H1C1N1_0_S_0 output.out
          number of atoms            :                     3
          number of electrons        :                    10
          charge                     :                     0
          spin                       :                   0.0

   ID    Z sym.   atoms
    1    6 C      1
    2    7 N      2
    3    1 H      3

          :  Hamiltonian                  GFN2-xTB          :
 * total energy  :    -5.3507217 Eh     change       -0.2186162E-10 Eh
 * total energy  :    -5.4610940 Eh     change       -0.1103723E+00 Eh
 * total energy  :    -5.4641983 Eh     change       -0.3104301E-02 Eh
 * total energy  :    -5.4947238 Eh     change       -0.3052547E-01 Eh
 * total energy  :    -5.4992423 Eh     change       -0.4518491E-02 Eh
 * total energy  :    -5.5025347 Eh     change       -0.3292380E-02 Eh
 * total energy  :    -5.5038965 Eh     change       -0.1361801E-02 Eh
 * total energy  :    -5.5040615 Eh     change       -0.1650879E-03 Eh
 * total energy  :    -5.5040649 Eh     change       -0.3350805E-05 Eh
 * total energy  :    -5.5040662 Eh     change       -0.1273763E-05 Eh
   *** GEOMETRY OPTIMIZATION CONVERGED AFTER 10 ITERATIONS ***

 final structure:
================
3
 xtb: 6.2.2 (9d81278992624c895f80dd42a50cac0aa55982e2)
C        -0.02639776740656   -0.00107283348041    0.00000000000000
N         1.11009889813823    0.04751626236639    0.00000000000000
H        -1.08370013073167   -0.04644242888598    0.00000000000000

          :  Hamiltonian                  GFN2-xTB          :
         :: gradient norm              0.000359441504 Eh/a0 ::
         :: HOMO-LUMO gap              5.950928115286 eV    ::
         :: SCC energy                -5.632580638064 Eh    ::
         :: -> dispersion             -0.000496463416 Eh    ::
         :: repulsion energy           0.128514476101 Eh    ::

    * Orbital Energies and Occupations

         #    Occupation            Energy/Eh            Energy/eV
      -------------------------------------------------------------
         1        2.0000           -0.6644533             -18.0807
         2        2.0000           -0.5757772             -15.6677
         3        2.0000           -0.5064863             -13.7822
         4        2.0000           -0.5064863             -13.7822
Molecule has the following symmetry elements: (Cinf) (sigma)
It seems to be the Cinfv point group
         5        2.0000           -0.4498742             -12.2417 (HOMO)
         6                         -0.2311817              -6.2908 (LUMO)
         7                         -0.2311817              -6.2908
         8                          0.1199623               3.2643
         9                          1.1401935              31.0262
      -------------------------------------------------------------
                  HL-Gap            0.2186925 Eh            5.9509 eV

     #   Z        covCN         q      C6AA      Î±(0)
     1   6 C      1.838     0.075    29.261     8.739
     2   7 N      0.910    -0.158    24.421     7.147
     3   1 H      0.927     0.083     1.952     2.185

Wiberg/Mayer (AO) data.
largest (>0.10) Wiberg bond orders for each atom
          total WBO             WBO to atom ...

molecular dipole:
                 x           y           z       tot (Debye)
 q only:       -0.504      -0.022       0.000
   full:       -1.030      -0.044       0.000       2.621

   temp. (K)  partition function   enthalpy   heat capacity  entropy
                                   cal/mol     cal/K/mol   cal/K/mol   J/K/mol
  10.00  VIB   1.00                    0.000      0.000     -0.000
         ROT   4.57                   19.873      1.987      5.005
         INT   4.57                   19.873      1.987      5.005
         TR   0.835E+24               49.681      4.968     18.943
         TOT                          69.5541     6.9554    23.9483   100.1996

       T/K    H(0)-H(T)+PV         H(T)/Eh          T*S/Eh         G(T)/Eh
   ------------------------------------------------------------------------
    298.15    0.347597E-02    0.197343E-01    0.228107E-01   -0.307648E-02
    120.00    0.133074E-02    0.175890E-01    0.788442E-02    0.970460E-02
    100.00    0.110851E-02    0.173668E-01    0.636785E-02    0.109989E-01
     80.00    0.886738E-03    0.171450E-01    0.489640E-02    0.122486E-01
     60.00    0.665049E-03    0.169233E-01    0.348104E-02    0.134423E-01
     40.00    0.443366E-03    0.167017E-01    0.214098E-02    0.145607E-01
     20.00    0.221683E-03    0.164800E-01    0.916886E-03    0.155631E-01
     10.00    0.110842E-03    0.163691E-01    0.381640E-03    0.159875E-01 (used)
   ------------------------------------------------------------------------

         :::::::::::::::::::::::::::::::::::::::::::::::::::::
         ::                  THERMODYNAMIC                  ::
         :::::::::::::::::::::::::::::::::::::::::::::::::::::
         :: total free energy          -5.488078674988 Eh   ::
         ::.................................................::
         :: total energy               -5.504066162876 Eh   ::
         :: zero point energy           0.016258286458 Eh   ::
         :: G(RRHO) w/o ZPVE           -0.000270798571 Eh   ::
         :: G(RRHO) contrib.            0.015987487888 Eh   ::
         :::::::::::::::::::::::::::::::::::::::::::::::::::::

           -------------------------------------------------
          | TOTAL ENERGY               -5.504066162876 Eh   |
          | TOTAL ENTHALPY             -5.487697034904 Eh   |
          | TOTAL FREE ENERGY          -5.488078674988 Eh   |
          | GRADIENT NORM               0.000359320450 Eh/Î± |
          | HOMO-LUMO GAP               5.950927066647 eV   |
           -------------------------------------------------

 * finished run on 2020/05/12 at 11:44:24.895
