   * xtb version 6.2.2 (9d81278992624c895f80dd42a50cac0aa55982e2) compiled by '@Darwin' on 04/03/2020
          program call               : xtb --input H2C1N2_8_S_2.input H2C1N2_8_S_2.xyz --ohess --molden --namespace H2C1N2_8_S_2 output.out
          number of atoms            :                     5
          number of electrons        :                    16
          charge                     :                     0
          spin                       :                   1.0

   ID    Z sym.   atoms
    1    6 C      1
    2    7 N      2, 3
    3    1 H      4, 5

          :  Hamiltonian                  GFN2-xTB          :
 * total energy  :    -8.7298224 Eh     change       -0.2285798E-09 Eh
 * total energy  :    -8.7712622 Eh     change       -0.4143979E-01 Eh
 * total energy  :    -8.7722398 Eh     change       -0.9775865E-03 Eh
 * total energy  :    -8.7793385 Eh     change       -0.7098693E-02 Eh
 * total energy  :    -8.7805604 Eh     change       -0.1221913E-02 Eh
 * total energy  :    -8.7836333 Eh     change       -0.3072893E-02 Eh
 * total energy  :    -8.7852408 Eh     change       -0.1607518E-02 Eh
 * total energy  :    -8.7856722 Eh     change       -0.4314216E-03 Eh
 * total energy  :    -8.7859957 Eh     change       -0.3234711E-03 Eh
 * total energy  :    -8.7861219 Eh     change       -0.1262534E-03 Eh
 * total energy  :    -8.7862876 Eh     change       -0.1656623E-03 Eh
 * total energy  :    -8.7863758 Eh     change       -0.8820124E-04 Eh
 * total energy  :    -8.7864451 Eh     change       -0.6932399E-04 Eh
 * total energy  :    -8.7864661 Eh     change       -0.2098702E-04 Eh
 * total energy  :    -8.7864704 Eh     change       -0.4306194E-05 Eh
   *** GEOMETRY OPTIMIZATION CONVERGED AFTER 15 ITERATIONS ***

 final structure:
================
5
 xtb: 6.2.2 (9d81278992624c895f80dd42a50cac0aa55982e2)
C         0.76688036671163   -0.31543441151058    0.44486978446410
N        -0.53925573219069    0.00519841120936    0.16322828421522
N         1.67839989802049    0.18305959611420   -0.22906090404086
H        -0.76567944241603    0.89410243698220   -0.28533407605092
H        -1.14034509012541   -0.76692703279518   -0.09370308858753

          :  Hamiltonian                  GFN2-xTB          :
         :: gradient norm              0.000772769445 Eh/a0 ::
         :: HOMO-LUMO gap              2.328946932289 eV    ::
         :: SCC energy                -8.895094125200 Eh    ::
         :: -> dispersion             -0.001395524531 Eh    ::
         :: repulsion energy           0.108623678082 Eh    ::

    * Orbital Energies and Occupations

         #    Occupation            Energy/Eh            Energy/eV
      -------------------------------------------------------------
         1        2.0000           -0.6645432             -18.0831
         2        2.0000           -0.6275760             -17.0772
         3        2.0000           -0.5794696             -15.7682
         4        2.0000           -0.5665853             -15.4176
         5        2.0000           -0.4986078             -13.5678
         6        2.0000           -0.4613523             -12.5540
         7        2.0000           -0.4288931             -11.6708
         8        1.0000           -0.4010048             -10.9119
         9        1.0000           -0.2966820              -8.0731 (HOMO)
        10                         -0.2110948              -5.7442 (LUMO)
        11                          0.0124926               0.3399
        12                          0.1847310               5.0268
        13                          0.2746761               7.4743
        14                          0.5863586              15.9556
      -------------------------------------------------------------
                  HL-Gap            0.0855872 Eh            2.3289 eV

     #   Z        covCN         q      C6AA      Î±(0)
     1   6 C      1.820     0.046    30.005     8.850
     2   7 N      2.649    -0.183    24.980     7.423
     3   7 N      0.930    -0.239    26.122     7.381
     4   1 H      0.860     0.184     1.192     1.711
     5   1 H      0.860     0.192     1.146     1.677

Wiberg/Mayer (AO) data.
largest (>0.10) Wiberg bond orders for each atom
          total WBO             WBO to atom ...

molecular dipole:
                 x           y           z       tot (Debye)
 q only:       -1.184      -0.080      -0.048
   full:       -1.493      -0.029      -0.183       3.823

 projected vibrational frequencies (cm-1)
eigval :       -0.00    -0.00    -0.00     0.00     0.00     0.00
eigval :      326.37   499.47   637.67   933.48  1117.63  1399.89
Molecule has no symmetry elements
It seems to be the C1 point group
eigval :     1745.77  3194.74  3413.43

   temp. (K)  partition function   enthalpy   heat capacity  entropy
                                   cal/mol     cal/K/mol   cal/K/mol   J/K/mol
  10.00  VIB   1.00                    0.000      0.000     -0.001
         ROT   47.6                   29.809      2.981     10.656
         INT   47.6                   29.809      2.981     10.654
         TR   0.162E+25               49.681      4.968     20.259
         TOT                          79.4904     7.9490    30.9139   129.3440

       T/K    H(0)-H(T)+PV         H(T)/Eh          T*S/Eh         G(T)/Eh
   ------------------------------------------------------------------------
    298.15    0.460995E-02    0.348377E-01    0.287091E-01    0.612861E-02
    120.00    0.155760E-02    0.317854E-01    0.973454E-02    0.220508E-01
    100.00    0.128250E-02    0.315103E-01    0.786155E-02    0.236487E-01
     80.00    0.101794E-02    0.312457E-01    0.605330E-02    0.251924E-01
     60.00    0.760665E-03    0.309884E-01    0.431810E-02    0.266703E-01
     40.00    0.506716E-03    0.307345E-01    0.267288E-02    0.280616E-01
     20.00    0.253352E-03    0.304811E-01    0.116086E-02    0.293203E-01
     10.00    0.126676E-03    0.303544E-01    0.492645E-03    0.298618E-01 (used)
   ------------------------------------------------------------------------

         :::::::::::::::::::::::::::::::::::::::::::::::::::::
         ::                  THERMODYNAMIC                  ::
         :::::::::::::::::::::::::::::::::::::::::::::::::::::
         :: total free energy          -8.756608636884 Eh   ::
         ::.................................................::
         :: total energy               -8.786470428911 Eh   ::
         :: zero point energy           0.030227761125 Eh   ::
         :: G(RRHO) w/o ZPVE           -0.000365969098 Eh   ::
         :: G(RRHO) contrib.            0.029861792027 Eh   ::
         :::::::::::::::::::::::::::::::::::::::::::::::::::::

           -------------------------------------------------
          | TOTAL ENERGY               -8.786470428911 Eh   |
          | TOTAL ENTHALPY             -8.756115991770 Eh   |
          | TOTAL FREE ENERGY          -8.756608636884 Eh   |
          | GRADIENT NORM               0.000772525728 Eh/Î± |
          | HOMO-LUMO GAP               2.328945967901 eV   |
           -------------------------------------------------

 * finished run on 2020/05/12 at 11:45:22.875
