   * xtb version 6.2.2 (9d81278992624c895f80dd42a50cac0aa55982e2) compiled by '@Darwin' on 04/03/2020
          program call               : xtb --input C4_4_S_2.input C4_4_S_2.xyz --ohess --molden --namespace C4_4_S_2 output.out
          number of atoms            :                     4
          number of electrons        :                    16
          charge                     :                     0
          spin                       :                   1.0

   ID    Z sym.   atoms
    1    6 C      1-4

          :  Hamiltonian                  GFN2-xTB          :
 * total energy  :    -8.0518991 Eh     change       -0.8260415E-10 Eh
 * total energy  :    -8.0745016 Eh     change       -0.2260252E-01 Eh
 * total energy  :    -8.0973268 Eh     change       -0.2282522E-01 Eh
 * total energy  :    -8.1129426 Eh     change       -0.1561582E-01 Eh
 * total energy  :    -8.1192177 Eh     change       -0.6275082E-02 Eh
 * total energy  :    -8.1224105 Eh     change       -0.3192799E-02 Eh
 * total energy  :    -8.1224831 Eh     change       -0.7256851E-04 Eh
 * total energy  :    -8.1224838 Eh     change       -0.7434679E-06 Eh
   *** GEOMETRY OPTIMIZATION CONVERGED AFTER 8 ITERATIONS ***

 final structure:
================
4
 xtb: 6.2.2 (9d81278992624c895f80dd42a50cac0aa55982e2)
C        -0.96426013309578   -0.02589406474955    0.12061851564389
C        -0.00930513488883    0.95514445659155   -0.18160342240765
C         0.93469518110856    0.02031605800756    0.26636293845334
C         0.03887008687605   -0.94956644984956   -0.20537903168958

          :  Hamiltonian                  GFN2-xTB          :
         :: gradient norm              0.000260031836 Eh/a0 ::
         :: HOMO-LUMO gap              2.500522805119 eV    ::
         :: SCC energy                -8.248918277708 Eh    ::
         :: -> dispersion             -0.001705822564 Eh    ::
         :: repulsion energy           0.126434455661 Eh    ::

    * Orbital Energies and Occupations

         #    Occupation            Energy/Eh            Energy/eV
      -------------------------------------------------------------
         1        2.0000           -0.7393375             -20.1184
         2        2.0000           -0.6283349             -17.0979
         3        2.0000           -0.6283042             -17.0970
         4        2.0000           -0.5531562             -15.0521
         5        2.0000           -0.5336766             -14.5221
         6        2.0000           -0.4802882             -13.0693
         7        2.0000           -0.4635223             -12.6131
         8        1.0000           -0.4133249             -11.2471
         9        1.0000           -0.4132833             -11.2460 (HOMO)
        10                         -0.3213908              -8.7455 (LUMO)
        11                         -0.3212921              -8.7428
        12                         -0.2359633              -6.4209
        13                          0.1272467               3.4626
        14                          0.1772300               4.8227
        15                          0.1773607               4.8262
        16                          0.5710667              15.5395
      -------------------------------------------------------------
                  HL-Gap            0.0918925 Eh            2.5005 eV

     #   Z        covCN         q      C6AA      Î±(0)
     1   6 C      2.640    -0.000    28.013     8.658
     2   6 C      2.639     0.000    28.013     8.658
     3   6 C      2.640    -0.000    28.013     8.658
     4   6 C      2.639     0.000    28.013     8.658

Wiberg/Mayer (AO) data.
largest (>0.10) Wiberg bond orders for each atom
          total WBO             WBO to atom ...

molecular dipole:
                 x           y           z       tot (Debye)
 q only:        0.000       0.000      -0.000
   full:        0.000       0.000      -0.000       0.000

 projected vibrational frequencies (cm-1)
eigval :       -0.00    -0.00    -0.00     0.00     0.00     0.00
eigval :      559.54   635.69   915.63  1071.09  1071.39  1460.73

   temp. (K)  partition function   enthalpy   heat capacity  entropy
                                   cal/mol     cal/K/mol   cal/K/mol   J/K/mol
  10.00  VIB   1.00                    0.000      0.000     -0.000
         ROT   18.3                   29.809      2.981      8.756
         INT   18.3                   29.809      2.981      8.756
         TR   0.198E+25               49.681      4.968     20.657
         TOT                          79.4904     7.9490    29.4132   123.0648

       T/K    H(0)-H(T)+PV         H(T)/Eh          T*S/Eh         G(T)/Eh
   ------------------------------------------------------------------------
    298.15    0.421437E-02    0.172320E-01    0.273651E-01   -0.101331E-01
    120.00    0.152474E-02    0.145424E-01    0.940628E-02    0.513608E-02
    100.00    0.126789E-02    0.142855E-01    0.760454E-02    0.668097E-02
     80.00    0.101355E-02    0.140312E-01    0.585670E-02    0.817447E-02
     60.00    0.760061E-03    0.137777E-01    0.417382E-02    0.960386E-02
     40.00    0.506704E-03    0.135243E-01    0.257715E-02    0.109472E-01
     20.00    0.253352E-03    0.132710E-01    0.111302E-02    0.121580E-01
     10.00    0.126676E-03    0.131443E-01    0.468729E-03    0.126756E-01 (used)
   ------------------------------------------------------------------------

         :::::::::::::::::::::::::::::::::::::::::::::::::::::
         ::                  THERMODYNAMIC                  ::
         :::::::::::::::::::::::::::::::::::::::::::::::::::::
         :: total free energy          -8.109808252250 Eh   ::
         ::.................................................::
         :: total energy               -8.122483816642 Eh   ::
         :: zero point energy           0.013017617628 Eh   ::
         :: G(RRHO) w/o ZPVE           -0.000342053236 Eh   ::
         :: G(RRHO) contrib.            0.012675564392 Eh   ::
         :::::::::::::::::::::::::::::::::::::::::::::::::::::

           -------------------------------------------------
          | TOTAL ENERGY               -8.122483816642 Eh   |
          | TOTAL ENTHALPY             -8.109339522999 Eh   |
          | TOTAL FREE ENERGY          -8.109808252250 Eh   |
          | GRADIENT NORM               0.000260041862 Eh/Î± |
          | HOMO-LUMO GAP               2.500521574546 eV   |
           -------------------------------------------------

 * finished run on 2020/05/12 at 14:38:40.738
