   * xtb version 6.2.2 (9d81278992624c895f80dd42a50cac0aa55982e2) compiled by '@Darwin' on 04/03/2020
          program call               : xtb --input C4N1_54_S_3.input C4N1_54_S_3.xyz --ohess --molden --namespace C4N1_54_S_3 output.out
          number of atoms            :                     5
          number of electrons        :                    21
          charge                     :                     0
          spin                       :                   1.5

   ID    Z sym.   atoms
    1    6 C      1-3, 5
    2    7 N      4

          :  Hamiltonian                  GFN2-xTB          :
 * total energy  :   -10.9166771 Eh     change       -0.1829436E-08 Eh
 * total energy  :   -10.9392207 Eh     change       -0.2254358E-01 Eh
 * total energy  :   -10.9467316 Eh     change       -0.7510847E-02 Eh
 * total energy  :   -10.9473000 Eh     change       -0.5684411E-03 Eh
 * total energy  :   -10.9474933 Eh     change       -0.1932869E-03 Eh
 * total energy  :   -10.9475105 Eh     change       -0.1723263E-04 Eh
 * total energy  :   -10.9475159 Eh     change       -0.5372588E-05 Eh
 * total energy  :   -10.9475171 Eh     change       -0.1240290E-05 Eh
   *** GEOMETRY OPTIMIZATION CONVERGED AFTER 8 ITERATIONS ***

 final structure:
================
5
 xtb: 6.2.2 (9d81278992624c895f80dd42a50cac0aa55982e2)
C         1.33385156258681   -0.02345278224149   -0.02642592981543
C         0.14411448173804    0.84060188470462    0.08668999083330
C        -0.84909830350359    0.11139157642629   -0.69578684971424
N        -0.73869277819878   -0.09004754356281    0.77686159776285
C         0.10982503737752   -0.83849413532661   -0.14133880906647

          :  Hamiltonian                  GFN2-xTB          :
         :: gradient norm              0.000599158549 Eh/a0 ::
         :: HOMO-LUMO gap              0.557327893602 eV    ::
         :: SCC energy               -11.063345893322 Eh    ::
         :: -> dispersion             -0.002529004344 Eh    ::
         :: repulsion energy           0.115828744556 Eh    ::

    * Orbital Energies and Occupations

         #    Occupation            Energy/Eh            Energy/eV
      -------------------------------------------------------------
         1        2.0000           -0.7774577             -21.1557
         2        2.0000           -0.6775752             -18.4378
         3        2.0000           -0.6435130             -17.5109
         4        2.0000           -0.6304359             -17.1550
         5        2.0000           -0.5502156             -14.9721
         6        2.0000           -0.5347609             -14.5516
         7        2.0000           -0.4952270             -13.4758
         8        2.0000           -0.4877641             -13.2727
         9        1.9941           -0.4776097             -12.9964
        10        1.0059           -0.4678754             -12.7315
        11        1.0000           -0.4266489             -11.6097
        12        1.0000           -0.3556178              -9.6769 (HOMO)
        13        0.0000           -0.3351362              -9.1195 (LUMO)
        14                         -0.1451780              -3.9505
        15                         -0.1240584              -3.3758
        16                          0.0383987               1.0449
        17                          0.0432222               1.1761
        18                          0.1072263               2.9178
        19                          0.1961715               5.3381
        20                          0.3255900               8.8598
      -------------------------------------------------------------
                  HL-Gap            0.0204816 Eh            0.5573 eV

     #   Z        covCN         q      C6AA      Î±(0)
     1   6 C      2.079    -0.062    32.594     9.223
     2   6 C      3.793     0.078    19.293     6.255
     3   6 C      2.925     0.054    26.787     8.488
     4   7 N      2.778    -0.148    24.192     7.305
     5   6 C      3.793     0.078    19.294     6.255

Wiberg/Mayer (AO) data.
largest (>0.10) Wiberg bond orders for each atom
          total WBO             WBO to atom ...

molecular dipole:
                 x           y           z       tot (Debye)
 q only:        0.001       0.040      -0.293
   full:       -0.111       0.046      -0.318       0.865

 projected vibrational frequencies (cm-1)
eigval :       -0.00    -0.00    -0.00     0.00     0.00     0.00
eigval :     -550.49   539.60   673.88   749.73   799.94  1029.11
eigval :     1056.27  1163.24  1444.10

   temp. (K)  partition function   enthalpy   heat capacity  entropy
                                   cal/mol     cal/K/mol   cal/K/mol   J/K/mol
  10.00  VIB   1.00                    0.000      0.000     -0.000
         ROT   142.                   29.809      2.981     12.836
         INT   142.                   29.809      2.981     12.836
         TR   0.290E+25               49.681      4.968     21.419
         TOT                          79.4904     7.9490    34.2549   143.3227

       T/K    H(0)-H(T)+PV         H(T)/Eh          T*S/Eh         G(T)/Eh
   ------------------------------------------------------------------------
    298.15    0.435764E-02    0.213434E-01    0.298475E-01   -0.850417E-02
    120.00    0.152560E-02    0.185113E-01    0.103332E-01    0.817814E-02
    100.00    0.126810E-02    0.182538E-01    0.837637E-02    0.987745E-02
     80.00    0.101358E-02    0.179993E-01    0.647401E-02    0.115253E-01
     60.00    0.760062E-03    0.177458E-01    0.463678E-02    0.131090E-01
     40.00    0.506704E-03    0.174924E-01    0.288579E-02    0.146066E-01
     20.00    0.253352E-03    0.172391E-01    0.126733E-02    0.159717E-01
     10.00    0.126676E-03    0.171124E-01    0.545887E-03    0.165665E-01 (used)
   ------------------------------------------------------------------------

         :::::::::::::::::::::::::::::::::::::::::::::::::::::
         ::                  THERMODYNAMIC                  ::
         :::::::::::::::::::::::::::::::::::::::::::::::::::::
         :: total free energy         -10.930950624278 Eh   ::
         ::.................................................::
         :: total energy              -10.947517127151 Eh   ::
         :: zero point energy           0.016985714081 Eh   ::
         :: G(RRHO) w/o ZPVE           -0.000419211208 Eh   ::
         :: G(RRHO) contrib.            0.016566502873 Eh   ::
         :::::::::::::::::::::::::::::::::::::::::::::::::::::

           -------------------------------------------------
          | TOTAL ENERGY              -10.947517127151 Eh   |
          | TOTAL ENTHALPY            -10.930404737054 Eh   |
          | TOTAL FREE ENERGY         -10.930950624278 Eh   |
          | GRADIENT NORM               0.000600578851 Eh/Î± |
          | HOMO-LUMO GAP               0.557332560200 eV   |
           -------------------------------------------------

 * finished run on 2020/05/12 at 11:44:22.910
