   * xtb version 6.2.2 (9d81278992624c895f80dd42a50cac0aa55982e2) compiled by '@Darwin' on 04/03/2020
          program call               : xtb --input H1C3N1_10_S_2.input H1C3N1_10_S_2.xyz --ohess --molden --namespace H1C3N1_10_S_2 output.out
          number of atoms            :                     5
          number of electrons        :                    18
          charge                     :                     0
          spin                       :                   1.0

   ID    Z sym.   atoms
    1    6 C      1, 3, 4
    2    7 N      2
    3    1 H      5

          :  Hamiltonian                  GFN2-xTB          :
 * total energy  :    -9.3568520 Eh     change       -0.7347012E-10 Eh
 * total energy  :    -9.4378740 Eh     change       -0.8102204E-01 Eh
 * total energy  :    -9.4271039 Eh     change        0.1077017E-01 Eh
 * total energy  :    -9.4758223 Eh     change       -0.4871846E-01 Eh
 * total energy  :    -9.4796053 Eh     change       -0.3782983E-02 Eh
 * total energy  :    -9.4828302 Eh     change       -0.3224920E-02 Eh
 * total energy  :    -9.4826907 Eh     change        0.1395153E-03 Eh
 * total energy  :    -9.4836249 Eh     change       -0.9341934E-03 Eh
 * total energy  :    -9.4837890 Eh     change       -0.1640363E-03 Eh
 * total energy  :    -9.4839545 Eh     change       -0.1654974E-03 Eh
 * total energy  :    -9.4845018 Eh     change       -0.1607443E-03 Eh
 * total energy  :    -9.4845795 Eh     change       -0.7768090E-04 Eh
 * total energy  :    -9.4846336 Eh     change       -0.5406394E-04 Eh
 * total energy  :    -9.4846780 Eh     change       -0.4437244E-04 Eh
 * total energy  :    -9.4847123 Eh     change       -0.3432672E-04 Eh
 * total energy  :    -9.4847384 Eh     change       -0.2608676E-04 Eh
 * total energy  :    -9.4847536 Eh     change       -0.1518478E-04 Eh
 * total energy  :    -9.4847545 Eh     change       -0.8984820E-06 Eh
 * total energy  :    -9.4847565 Eh     change       -0.2089216E-05 Eh
   *** GEOMETRY OPTIMIZATION CONVERGED AFTER 21 ITERATIONS ***

 final structure:
================
5
 xtb: 6.2.2 (9d81278992624c895f80dd42a50cac0aa55982e2)
C        -1.16249628127724    1.19534794655752    0.36440821788903
N        -0.52734780529906    0.13807374921096    0.03459703143203
C         0.82262770452921   -0.07788183208168   -0.00790584767115
C         1.92292033004817   -0.54973855714016   -0.13998840096176
H        -1.05570394800107   -0.70580130654664   -0.25111100068815

          :  Hamiltonian                  GFN2-xTB          :
         :: gradient norm              0.000734155354 Eh/a0 ::
         :: HOMO-LUMO gap              1.163538201673 eV    ::
         :: SCC energy                -9.669320866129 Eh    ::
         :: -> dispersion             -0.002217201654 Eh    ::
         :: repulsion energy           0.184564306003 Eh    ::

    * Orbital Energies and Occupations

         #    Occupation            Energy/Eh            Energy/eV
      -------------------------------------------------------------
         1        2.0000           -0.6918474             -18.8261
         2        2.0000           -0.6585354             -17.9197
         3        2.0000           -0.6216779             -16.9167
         4        2.0000           -0.6030606             -16.4101
         5        2.0000           -0.5426928             -14.7674
         6        2.0000           -0.4605921             -12.5333
         7        2.0000           -0.4408425             -11.9959
         8        2.0000           -0.4353202             -11.8457
         9        1.0000           -0.4129266             -11.2363
        10        1.0000           -0.3217514              -8.7553 (HOMO)
        11                         -0.2789922              -7.5918 (LUMO)
        12                         -0.1956803              -5.3247
        13                         -0.1511977              -4.1143
        14                          0.0225931               0.6148
        15                          0.1631373               4.4392
        16                          0.4836878              13.1618
        17                          1.1583235              31.5196
      -------------------------------------------------------------
                  HL-Gap            0.0427592 Eh            1.1635 eV

     #   Z        covCN         q      C6AA      Î±(0)
     1   6 C      0.930    -0.176    41.348    10.772
     2   7 N      2.679     0.062    20.161     6.669
     3   6 C      1.910     0.025    30.462     8.913
     4   6 C      0.981    -0.098    39.023    10.493
     5   1 H      0.858     0.186     1.179     1.701

Wiberg/Mayer (AO) data.
largest (>0.10) Wiberg bond orders for each atom
          total WBO             WBO to atom ...

molecular dipole:
                 x           y           z       tot (Debye)
 q only:       -0.364      -0.531      -0.180
   full:       -0.293      -0.809      -0.269       2.292

 projected vibrational frequencies (cm-1)
eigval :       -0.00    -0.00     0.00     0.00     0.00     0.00
eigval :       91.76   186.79   502.85   606.29   960.87  1231.86
eigval :     1457.26  2165.10  2959.17

   temp. (K)  partition function   enthalpy   heat capacity  entropy
                                   cal/mol     cal/K/mol   cal/K/mol   J/K/mol
  10.00  VIB   1.00                    0.000      0.001     -0.041
         ROT   98.9                   29.809      2.981     12.110
         INT   98.9                   29.809      2.982     12.069
         TR   0.217E+25               49.681      4.968     20.838
         TOT                          79.4909     7.9497    32.9068   137.6819

       T/K    H(0)-H(T)+PV         H(T)/Eh          T*S/Eh         G(T)/Eh
   ------------------------------------------------------------------------
    298.15    0.555143E-02    0.287020E-01    0.318358E-01   -0.313376E-02
    120.00    0.183763E-02    0.249882E-01    0.105950E-01    0.143933E-01
    100.00    0.148338E-02    0.246340E-01    0.850829E-02    0.161257E-01
     80.00    0.114373E-02    0.242943E-01    0.650534E-02    0.177890E-01
     60.00    0.821919E-03    0.239725E-01    0.460277E-02    0.193697E-01
     40.00    0.523738E-03    0.236743E-01    0.282767E-02    0.208467E-01
     20.00    0.253922E-03    0.234045E-01    0.122686E-02    0.221776E-01
     10.00    0.126677E-03    0.232773E-01    0.524403E-03    0.227529E-01 (used)
   ------------------------------------------------------------------------

         :::::::::::::::::::::::::::::::::::::::::::::::::::::
         ::                  THERMODYNAMIC                  ::
         :::::::::::::::::::::::::::::::::::::::::::::::::::::
         :: total free energy          -9.462003684191 Eh   ::
         ::.................................................::
         :: total energy               -9.484756540632 Eh   ::
         :: zero point energy           0.023150582275 Eh   ::
         :: G(RRHO) w/o ZPVE           -0.000397725833 Eh   ::
         :: G(RRHO) contrib.            0.022752856442 Eh   ::
         :::::::::::::::::::::::::::::::::::::::::::::::::::::

           -------------------------------------------------
          | TOTAL ENERGY               -9.484756540632 Eh   |
          | TOTAL ENTHALPY             -9.461479281569 Eh   |
          | TOTAL FREE ENERGY          -9.462003684191 Eh   |
          | GRADIENT NORM               0.000734379229 Eh/Î± |
          | HOMO-LUMO GAP               1.163536391929 eV   |
           -------------------------------------------------

 * finished run on 2020/05/12 at 11:44:54.392
