   * xtb version 6.2.2 (9d81278992624c895f80dd42a50cac0aa55982e2) compiled by '@Darwin' on 04/03/2020
          program call               : xtb --input C4N1_38_S_3.input C4N1_38_S_3.xyz --ohess --molden --namespace C4N1_38_S_3 output.out
          number of atoms            :                     5
          number of electrons        :                    21
          charge                     :                     0
          spin                       :                   1.5

   ID    Z sym.   atoms
    1    6 C      1, 3-5
    2    7 N      2

          :  Hamiltonian                  GFN2-xTB          :
 * total energy  :   -10.9043770 Eh     change       -0.2328914E-08 Eh
 * total energy  :   -10.9115479 Eh     change       -0.7170889E-02 Eh
 * total energy  :   -10.9137198 Eh     change       -0.2171918E-02 Eh
 * total energy  :   -10.9144327 Eh     change       -0.7129015E-03 Eh
 * total energy  :   -10.9440183 Eh     change       -0.2958562E-01 Eh
 * total energy  :   -10.9696925 Eh     change       -0.2567417E-01 Eh
 * total energy  :   -10.9759076 Eh     change       -0.6215121E-02 Eh
 * total energy  :   -10.9790297 Eh     change       -0.3122108E-02 Eh
 * total energy  :   -10.9821264 Eh     change       -0.3096734E-02 Eh
 * total energy  :   -10.9826186 Eh     change       -0.4922146E-03 Eh
 * total energy  :   -10.9826858 Eh     change       -0.6720518E-04 Eh
 * total energy  :   -10.9827012 Eh     change       -0.1539486E-04 Eh
 * total energy  :   -10.9827122 Eh     change       -0.1096997E-04 Eh
 * total energy  :   -10.9827249 Eh     change       -0.1264839E-04 Eh
 * total energy  :   -10.9827294 Eh     change       -0.4545136E-05 Eh
 * total energy  :   -10.9827302 Eh     change       -0.8365025E-06 Eh
   *** GEOMETRY OPTIMIZATION CONVERGED AFTER 16 ITERATIONS ***

 final structure:
================
5
 xtb: 6.2.2 (9d81278992624c895f80dd42a50cac0aa55982e2)
C         0.98900530952932    0.11016818940062   -0.35272025972663
N         0.34123257502060   -0.78168387196063    0.56019468498185
C        -0.95924752208497   -0.43481627893762    0.07374390579514
C        -0.04092124770339    0.64738328978209    0.63993406053981
C        -0.33006811476155    0.45894767171553   -0.92115239159017

          :  Hamiltonian                  GFN2-xTB          :
         :: gradient norm              0.000325472911 Eh/a0 ::
         :: HOMO-LUMO gap              4.149554037722 eV    ::
         :: SCC energy               -11.091683906291 Eh    ::
         :: -> dispersion             -0.002597236323 Eh    ::
         :: repulsion energy           0.108953650005 Eh    ::

    * Orbital Energies and Occupations

         #    Occupation            Energy/Eh            Energy/eV
      -------------------------------------------------------------
         1        2.0000           -0.7836477             -21.3241
         2        2.0000           -0.6703388             -18.2408
         3        2.0000           -0.6679325             -18.1754
         4        2.0000           -0.6322872             -17.2054
         5        2.0000           -0.5635472             -15.3349
         6        2.0000           -0.5187660             -14.1163
         7        2.0000           -0.5150773             -14.0160
         8        2.0000           -0.4915938             -13.3769
         9        2.0000           -0.4833135             -13.1516
        10        1.0000           -0.4626845             -12.5903
        11        1.0000           -0.4082202             -11.1082
        12        1.0000           -0.3993462             -10.8668 (HOMO)
        13                         -0.2468532              -6.7172 (LUMO)
        14                         -0.1691392              -4.6025
        15                         -0.1427252              -3.8838
        16                          0.0080471               0.2190
        17                          0.0679247               1.8483
        18                          0.1034441               2.8149
        19                          0.1148311               3.1247
        20                          0.3317989               9.0287
      -------------------------------------------------------------
                  HL-Gap            0.1524930 Eh            4.1495 eV

     #   Z        covCN         q      C6AA      Î±(0)
     1   6 C      3.214    -0.014    27.672     8.559
     2   7 N      2.991    -0.079    22.766     7.087
     3   6 C      3.214    -0.014    27.671     8.559
     4   6 C      3.820     0.116    18.675     6.150
     5   6 C      3.189    -0.009    27.761     8.595

Wiberg/Mayer (AO) data.
largest (>0.10) Wiberg bond orders for each atom
          total WBO             WBO to atom ...

molecular dipole:
                 x           y           z       tot (Debye)
 q only:       -0.055       0.259       0.080
   full:       -0.009       0.352       0.410       1.374

 projected vibrational frequencies (cm-1)
eigval :       -0.00    -0.00    -0.00     0.00     0.00     0.00
eigval :      268.89   412.92   550.24   889.63   997.91  1055.33
eigval :     1137.95  1160.54  1407.14

   temp. (K)  partition function   enthalpy   heat capacity  entropy
                                   cal/mol     cal/K/mol   cal/K/mol   J/K/mol
  10.00  VIB   1.00                    0.000      0.000     -0.002
         ROT   133.                   29.809      2.981     12.694
         INT   133.                   29.809      2.981     12.691
         TR   0.290E+25               49.681      4.968     21.419
         TOT                          79.4904     7.9490    34.1105   142.7182

       T/K    H(0)-H(T)+PV         H(T)/Eh          T*S/Eh         G(T)/Eh
   ------------------------------------------------------------------------
    298.15    0.489521E-02    0.228484E-01    0.306887E-01   -0.784030E-02
    120.00    0.158788E-02    0.195411E-01    0.103863E-01    0.915481E-02
    100.00    0.129879E-02    0.192520E-01    0.839195E-02    0.108600E-01
     80.00    0.102446E-02    0.189777E-01    0.646898E-02    0.125087E-01
     60.00    0.762099E-03    0.187153E-01    0.462554E-02    0.140898E-01
     40.00    0.506782E-03    0.184600E-01    0.287678E-02    0.155832E-01
     20.00    0.253352E-03    0.182066E-01    0.126276E-02    0.169438E-01
     10.00    0.126676E-03    0.180799E-01    0.543585E-03    0.175363E-01 (used)
   ------------------------------------------------------------------------

         :::::::::::::::::::::::::::::::::::::::::::::::::::::
         ::                  THERMODYNAMIC                  ::
         :::::::::::::::::::::::::::::::::::::::::::::::::::::
         :: total free energy         -10.965193949627 Eh   ::
         ::.................................................::
         :: total energy              -10.982730239451 Eh   ::
         :: zero point energy           0.017953198660 Eh   ::
         :: G(RRHO) w/o ZPVE           -0.000416908837 Eh   ::
         :: G(RRHO) contrib.            0.017536289823 Eh   ::
         :::::::::::::::::::::::::::::::::::::::::::::::::::::

           -------------------------------------------------
          | TOTAL ENERGY              -10.982730239451 Eh   |
          | TOTAL ENTHALPY            -10.964650364775 Eh   |
          | TOTAL FREE ENERGY         -10.965193949627 Eh   |
          | GRADIENT NORM               0.000324973869 Eh/Î± |
          | HOMO-LUMO GAP               4.149546468982 eV   |
           -------------------------------------------------

 * finished run on 2020/05/12 at 11:44:15.487
