   * xtb version 6.2.2 (9d81278992624c895f80dd42a50cac0aa55982e2) compiled by '@Darwin' on 04/03/2020
          program call               : xtb --input N2O1_0_S_2.input N2O1_0_S_2.xyz --ohess --molden --namespace N2O1_0_S_2 output.out
          number of atoms            :                     3
          number of electrons        :                    16
          charge                     :                     0
          spin                       :                   1.0

   ID    Z sym.   atoms
    1    8 O      1
    2    7 N      2, 3

          :  Hamiltonian                  GFN2-xTB          :
 * total energy  :    -9.5482202 Eh     change        0.6280843E-10 Eh
 * total energy  :    -9.5771482 Eh     change       -0.2892809E-01 Eh
 * total energy  :    -9.5889813 Eh     change       -0.1183305E-01 Eh
 * total energy  :    -9.5909017 Eh     change       -0.1920400E-02 Eh
 * total energy  :    -9.5909815 Eh     change       -0.7984773E-04 Eh
 * total energy  :    -9.5909828 Eh     change       -0.1258982E-05 Eh
   *** GEOMETRY OPTIMIZATION CONVERGED AFTER 6 ITERATIONS ***

 final structure:
================
3
 xtb: 6.2.2 (9d81278992624c895f80dd42a50cac0aa55982e2)
O        -0.00136226623780    0.34770744530016    0.00000000000000
N         1.11532464453278   -0.16948600082643    0.00000000000000
N        -1.11396237829498   -0.17822144447372    0.00000000000000

          :  Hamiltonian                  GFN2-xTB          :
         :: gradient norm              0.000696061040 Eh/a0 ::
         :: HOMO-LUMO gap              1.654029599209 eV    ::
         :: SCC energy                -9.620913248418 Eh    ::
         :: -> dispersion             -0.000694601156 Eh    ::
         :: repulsion energy           0.029930445547 Eh    ::

    * Orbital Energies and Occupations

         #    Occupation            Energy/Eh            Energy/eV
      -------------------------------------------------------------
         1        2.0000           -0.8553949             -23.2765
         2        2.0000           -0.7961096             -21.6632
         3        2.0000           -0.7102341             -19.3265
         4        2.0000           -0.6924099             -18.8414
         5        2.0000           -0.5481677             -14.9164
         6        2.0000           -0.5240242             -14.2594
         7        1.9930           -0.4552177             -12.3871
         8        1.0070           -0.4457895             -12.1305
         9        1.0000           -0.3926624             -10.6849 (HOMO)
        10                         -0.3318779              -9.0309 (LUMO)
        11                          0.0617298               1.6798
        12                          0.3649171               9.9299
      -------------------------------------------------------------
                  HL-Gap            0.0607845 Eh            1.6540 eV

     #   Z        covCN         q      C6AA      Î±(0)
     1   8 O      1.845     0.238    11.734     4.626
     2   7 N      0.952    -0.119    23.384     6.972
     3   7 N      0.952    -0.119    23.384     6.972

Wiberg/Mayer (AO) data.
largest (>0.10) Wiberg bond orders for each atom
          total WBO             WBO to atom ...

molecular dipole:
                 x           y           z       tot (Debye)
 q only:       -0.001       0.235      -0.000
   full:       -0.001       0.383      -0.000       0.974

 projected vibrational frequencies (cm-1)
eigval :       -0.00    -0.00     0.00     0.00     0.00     0.00
eigval :      592.13  1284.42  1386.02

   temp. (K)  partition function   enthalpy   heat capacity  entropy
                                   cal/mol     cal/K/mol   cal/K/mol   J/K/mol
  10.00  VIB   1.00                    0.000      0.000     -0.000
         ROT   14.1                   29.809      2.981      8.243
         INT   14.1                   29.809      2.981      8.242
         TR   0.174E+25               49.681      4.968     20.396
         TOT                          79.4904     7.9490    28.6386   119.8237

       T/K    H(0)-H(T)+PV         H(T)/Eh          T*S/Eh         G(T)/Eh
   ------------------------------------------------------------------------
    298.15    0.396099E-02    0.113937E-01    0.266688E-01   -0.152751E-01
    120.00    0.152234E-02    0.895502E-02    0.925537E-02   -0.300346E-03
    100.00    0.126730E-02    0.869998E-02    0.748040E-02    0.121958E-02
     80.00    0.101347E-02    0.844615E-02    0.575784E-02    0.268831E-02
     60.00    0.760058E-03    0.819274E-02    0.409974E-02    0.409300E-02
     40.00    0.506704E-03    0.793938E-02    0.252777E-02    0.541161E-02
     20.00    0.253352E-03    0.768603E-02    0.108833E-02    0.659770E-02
     10.00    0.126676E-03    0.755936E-02    0.456385E-03    0.710297E-02 (used)
   ------------------------------------------------------------------------

         :::::::::::::::::::::::::::::::::::::::::::::::::::::
         ::                  THERMODYNAMIC                  ::
         :::::::::::::::::::::::::::::::::::::::::::::::::::::
         :: total free energy          -9.583879832369 Eh   ::
         ::.................................................::
         :: total energy               -9.590982803582 Eh   ::
         :: zero point energy           0.007432679752 Eh   ::
         :: G(RRHO) w/o ZPVE           -0.000329708539 Eh   ::
         :: G(RRHO) contrib.            0.007102971213 Eh   ::
         :::::::::::::::::::::::::::::::::::::::::::::::::::::

           -------------------------------------------------
          | TOTAL ENERGY               -9.590982803582 Eh   |
          | TOTAL ENTHALPY             -9.583423447815 Eh   |
          | TOTAL FREE ENERGY          -9.583879832369 Eh   |
          | GRADIENT NORM               0.000696050060 Eh/Î± |
          | HOMO-LUMO GAP               1.654029661849 eV   |
           -------------------------------------------------

 * finished run on 2020/05/12 at 11:43:54.520
