   * xtb version 6.2.2 (9d81278992624c895f80dd42a50cac0aa55982e2) compiled by '@Darwin' on 04/03/2020
          program call               : xtb --input C3N1_7_S_3.input C3N1_7_S_3.xyz --ohess --molden --namespace C3N1_7_S_3 output.out
          number of atoms            :                     4
          number of electrons        :                    17
          charge                     :                     0
          spin                       :                   1.5

   ID    Z sym.   atoms
    1    6 C      1-3
    2    7 N      4

          :  Hamiltonian                  GFN2-xTB          :
 * total energy  :    -8.8871219 Eh     change        0.1911182E-10 Eh
 * total energy  :    -8.9085505 Eh     change       -0.2142862E-01 Eh
 * total energy  :    -8.9069798 Eh     change        0.1570749E-02 Eh
 * total energy  :    -8.9174686 Eh     change       -0.1048877E-01 Eh
 * total energy  :    -8.9202445 Eh     change       -0.2775980E-02 Eh
 * total energy  :    -8.9048641 Eh     change        0.1538041E-01 Eh
 * total energy  :    -8.9253470 Eh     change       -0.2048288E-01 Eh
 * total energy  :    -8.9253504 Eh     change       -0.3366106E-05 Eh
   *** GEOMETRY OPTIMIZATION CONVERGED AFTER 8 ITERATIONS ***

 final structure:
================
4
 xtb: 6.2.2 (9d81278992624c895f80dd42a50cac0aa55982e2)
C        -0.69197298875697   -0.56122426631729    0.02103867550817
C        -0.63245713549495    0.83711486551089   -0.25251073216755
C         0.68916778572224    0.53273199610978    0.18835255149759
N         0.63526133852969   -0.80862259530338    0.04311950516179

          :  Hamiltonian                  GFN2-xTB          :
         :: gradient norm              0.000450811068 Eh/a0 ::
         :: HOMO-LUMO gap              1.726311081699 eV    ::
         :: SCC energy                -9.028600425664 Eh    ::
         :: -> dispersion             -0.001717373606 Eh    ::
         :: repulsion energy           0.103250048191 Eh    ::

    * Orbital Energies and Occupations

         #    Occupation            Energy/Eh            Energy/eV
      -------------------------------------------------------------
         1        2.0000           -0.7517454             -20.4560
         2        2.0000           -0.6551634             -17.8279
         3        2.0000           -0.6330604             -17.2265
         4        2.0000           -0.5759574             -15.6726
         5        2.0000           -0.5588355             -15.2067
         6        2.0000           -0.5125882             -13.9482
         7        2.0000           -0.4741797             -12.9031
         8        1.0000           -0.4381426             -11.9225
         9        1.0000           -0.4029261             -10.9642
        10        1.0000           -0.3921456             -10.6708 (HOMO)
        11                         -0.3287049              -8.9445 (LUMO)
        12                         -0.2359748              -6.4212
        13                          0.0930714               2.5326
        14                          0.1556239               4.2347
        15                          0.1601285               4.3573
        16                          0.4373611              11.9012
      -------------------------------------------------------------
                  HL-Gap            0.0634408 Eh            1.7263 eV

     #   Z        covCN         q      C6AA      Î±(0)
     1   6 C      2.762     0.035    27.204     8.541
     2   6 C      2.145    -0.007    30.930     8.990
     3   6 C      2.762     0.035    27.204     8.541
     4   7 N      2.006    -0.062    23.122     7.132

Wiberg/Mayer (AO) data.
largest (>0.10) Wiberg bond orders for each atom
          total WBO             WBO to atom ...

molecular dipole:
                 x           y           z       tot (Debye)
 q only:       -0.066       0.081       0.012
   full:       -0.032       0.055      -0.095       0.291

 projected vibrational frequencies (cm-1)
eigval :       -0.00    -0.00    -0.00     0.00     0.00     0.00
eigval :      577.63   806.30   858.81  1110.92  1197.49  1428.24

   temp. (K)  partition function   enthalpy   heat capacity  entropy
                                   cal/mol     cal/K/mol   cal/K/mol   J/K/mol
  10.00  VIB   1.00                    0.000      0.000     -0.000
         ROT   76.4                   29.809      2.981     11.598
         INT   76.4                   29.809      2.981     11.598
         TR   0.210E+25               49.681      4.968     20.778
         TOT                          79.4904     7.9490    32.3765   135.4631

       T/K    H(0)-H(T)+PV         H(T)/Eh          T*S/Eh         G(T)/Eh
   ------------------------------------------------------------------------
    298.15    0.413662E-02    0.177587E-01    0.286644E-01   -0.109058E-01
    120.00    0.152308E-02    0.151451E-01    0.997102E-02    0.517410E-02
    100.00    0.126746E-02    0.148895E-01    0.807626E-02    0.681324E-02
     80.00    0.101349E-02    0.146355E-01    0.623441E-02    0.840113E-02
     60.00    0.760059E-03    0.143821E-01    0.445715E-02    0.992495E-02
     40.00    0.506704E-03    0.141287E-01    0.276604E-02    0.113627E-01
     20.00    0.253352E-03    0.138754E-01    0.120746E-02    0.126679E-01
     10.00    0.126676E-03    0.137487E-01    0.515952E-03    0.132328E-01 (used)
   ------------------------------------------------------------------------

         :::::::::::::::::::::::::::::::::::::::::::::::::::::
         ::                  THERMODYNAMIC                  ::
         :::::::::::::::::::::::::::::::::::::::::::::::::::::
         :: total free energy          -8.912117604298 Eh   ::
         ::.................................................::
         :: total energy               -8.925350372211 Eh   ::
         :: zero point energy           0.013622043610 Eh   ::
         :: G(RRHO) w/o ZPVE           -0.000389275698 Eh   ::
         :: G(RRHO) contrib.            0.013232767912 Eh   ::
         :::::::::::::::::::::::::::::::::::::::::::::::::::::

           -------------------------------------------------
          | TOTAL ENERGY               -8.925350372211 Eh   |
          | TOTAL ENTHALPY             -8.911601652585 Eh   |
          | TOTAL FREE ENERGY          -8.912117604298 Eh   |
          | GRADIENT NORM               0.000450891619 Eh/Î± |
          | HOMO-LUMO GAP               1.726310947098 eV   |
           -------------------------------------------------

 * finished run on 2020/05/12 at 11:45:06.155
