   * xtb version 6.2.2 (9d81278992624c895f80dd42a50cac0aa55982e2) compiled by '@Darwin' on 04/03/2020
          program call               : xtb --input C4N1_53_S_1.input C4N1_53_S_1.xyz --ohess --molden --namespace C4N1_53_S_1 output.out
          number of atoms            :                     5
          number of electrons        :                    21
          charge                     :                     0
          spin                       :                   0.5

   ID    Z sym.   atoms
    1    6 C      1, 3-5
    2    7 N      2

          :  Hamiltonian                  GFN2-xTB          :
 * total energy  :   -11.0068480 Eh     change       -0.1413838E-09 Eh
 * total energy  :   -11.0181166 Eh     change       -0.1126852E-01 Eh
 * total energy  :   -11.0252405 Eh     change       -0.7123902E-02 Eh
 * total energy  :   -11.0269316 Eh     change       -0.1691118E-02 Eh
 * total energy  :   -11.0285536 Eh     change       -0.1621987E-02 Eh
 * total energy  :   -11.0291295 Eh     change       -0.5759737E-03 Eh
 * total energy  :   -11.0302216 Eh     change       -0.1092092E-02 Eh
 * total energy  :   -11.0302730 Eh     change       -0.5138754E-04 Eh
 * total energy  :   -11.0302922 Eh     change       -0.1921367E-04 Eh
 * total energy  :   -11.0302996 Eh     change       -0.7391808E-05 Eh
 * total energy  :   -11.0303016 Eh     change       -0.2020355E-05 Eh
   *** GEOMETRY OPTIMIZATION CONVERGED AFTER 11 ITERATIONS ***

 final structure:
================
5
 xtb: 6.2.2 (9d81278992624c895f80dd42a50cac0aa55982e2)
C         1.23373441380010   -0.02160536446566   -0.00799523007107
N         0.13654398568473    0.83466891646915   -0.04084967832259
C        -0.75758544063411   -0.01179993332766   -0.79883074133659
C        -0.74430683612925    0.06413449843074    0.80829547781397
C         0.13161287727852   -0.86539811710657    0.03938117191628

          :  Hamiltonian                  GFN2-xTB          :
         :: gradient norm              0.000559433951 Eh/a0 ::
         :: HOMO-LUMO gap              1.628485907990 eV    ::
         :: SCC energy               -11.149654610739 Eh    ::
         :: -> dispersion             -0.002655216917 Eh    ::
         :: repulsion energy           0.119352940553 Eh    ::

    * Orbital Energies and Occupations

         #    Occupation            Energy/Eh            Energy/eV
      -------------------------------------------------------------
         1        2.0000           -0.7985721             -21.7303
         2        2.0000           -0.7044243             -19.1684
         3        2.0000           -0.6590547             -17.9338
         4        2.0000           -0.6561557             -17.8549
         5        2.0000           -0.5806311             -15.7998
         6        2.0000           -0.5288082             -14.3896
         7        2.0000           -0.5188023             -14.1173
         8        2.0000           -0.5169640             -14.0673
         9        2.0000           -0.4813025             -13.0969
        10        2.0000           -0.4545394             -12.3686
        11        1.0000           -0.4213429             -11.4653 (HOMO)
        12                         -0.3614972              -9.8368 (LUMO)
        13                         -0.3570818              -9.7167
        14                         -0.1749246              -4.7599
        15                         -0.1166648              -3.1746
        16                         -0.0296369              -0.8065
        17                          0.0468060               1.2737
        18                          0.1366857               3.7194
        19                          0.1531587               4.1677
        20                          0.4025442              10.9538
      -------------------------------------------------------------
                  HL-Gap            0.0598457 Eh            1.6285 eV

     #   Z        covCN         q      C6AA      Î±(0)
     1   6 C      2.332    -0.018    29.774     8.869
     2   7 N      3.552     0.055    20.283     6.689
     3   6 C      3.068    -0.075    29.796     8.951
     4   6 C      3.069    -0.075    29.793     8.950
     5   6 C      3.763     0.114    18.763     6.175

Wiberg/Mayer (AO) data.
largest (>0.10) Wiberg bond orders for each atom
          total WBO             WBO to atom ...

molecular dipole:
                 x           y           z       tot (Debye)
 q only:        0.212      -0.106       0.003
   full:        0.378      -0.076       0.000       0.979

 projected vibrational frequencies (cm-1)
eigval :       -0.00    -0.00    -0.00     0.00     0.00     0.00
eigval :     -282.72   511.59   686.91   712.46   881.40   972.16
eigval :      994.93  1290.66  1383.68

   temp. (K)  partition function   enthalpy   heat capacity  entropy
                                   cal/mol     cal/K/mol   cal/K/mol   J/K/mol
  10.00  VIB   1.00                    0.000      0.000     -0.000
         ROT   136.                   29.809      2.981     12.742
         INT   136.                   29.809      2.981     12.741
         TR   0.290E+25               49.681      4.968     21.419
         TOT                          79.4904     7.9490    34.1606   142.9281

       T/K    H(0)-H(T)+PV         H(T)/Eh          T*S/Eh         G(T)/Eh
   ------------------------------------------------------------------------
    298.15    0.437439E-02    0.213098E-01    0.298295E-01   -0.851972E-02
    120.00    0.152681E-02    0.184622E-01    0.103166E-01    0.814564E-02
    100.00    0.126854E-02    0.182040E-01    0.836185E-02    0.984211E-02
     80.00    0.101367E-02    0.179491E-01    0.646209E-02    0.114870E-01
     60.00    0.760067E-03    0.176955E-01    0.462777E-02    0.130677E-01
     40.00    0.506704E-03    0.174421E-01    0.287978E-02    0.145623E-01
     20.00    0.253352E-03    0.171888E-01    0.126433E-02    0.159244E-01
     10.00    0.126676E-03    0.170621E-01    0.544384E-03    0.165177E-01 (used)
   ------------------------------------------------------------------------

         :::::::::::::::::::::::::::::::::::::::::::::::::::::
         ::                  THERMODYNAMIC                  ::
         :::::::::::::::::::::::::::::::::::::::::::::::::::::
         :: total free energy         -11.013783937434 Eh   ::
         ::.................................................::
         :: total energy              -11.030301649686 Eh   ::
         :: zero point energy           0.016935420666 Eh   ::
         :: G(RRHO) w/o ZPVE           -0.000417708413 Eh   ::
         :: G(RRHO) contrib.            0.016517712252 Eh   ::
         :::::::::::::::::::::::::::::::::::::::::::::::::::::

           -------------------------------------------------
          | TOTAL ENERGY              -11.030301649686 Eh   |
          | TOTAL ENTHALPY            -11.013239553005 Eh   |
          | TOTAL FREE ENERGY         -11.013783937434 Eh   |
          | GRADIENT NORM               0.000559691133 Eh/Î± |
          | HOMO-LUMO GAP               1.628485055057 eV   |
           -------------------------------------------------

 * finished run on 2020/05/12 at 11:44:22.197
