   * xtb version 6.2.2 (9d81278992624c895f80dd42a50cac0aa55982e2) compiled by '@Darwin' on 04/03/2020
          program call               : xtb --input C4N1_45_S_1.input C4N1_45_S_1.xyz --ohess --molden --namespace C4N1_45_S_1 output.out
          number of atoms            :                     5
          number of electrons        :                    21
          charge                     :                     0
          spin                       :                   0.5

   ID    Z sym.   atoms
    1    7 N      1
    2    6 C      2-5

          :  Hamiltonian                  GFN2-xTB          :
 * total energy  :   -10.9104400 Eh     change       -0.2883009E-08 Eh
 * total energy  :   -10.9827294 Eh     change       -0.7228942E-01 Eh
 * total energy  :   -11.0148402 Eh     change       -0.3211077E-01 Eh
 * total energy  :   -11.0185879 Eh     change       -0.3747639E-02 Eh
 * total energy  :   -11.0341031 Eh     change       -0.1551522E-01 Eh
 * total energy  :   -11.0460242 Eh     change       -0.1192114E-01 Eh
 * total energy  :   -11.0533663 Eh     change       -0.7342131E-02 Eh
 * total energy  :   -11.0625720 Eh     change       -0.9205620E-02 Eh
 * total energy  :   -11.0658476 Eh     change       -0.3275644E-02 Eh
 * total energy  :   -11.0700433 Eh     change       -0.4195665E-02 Eh
 * total energy  :   -11.0708262 Eh     change       -0.7828839E-03 Eh
 * total energy  :   -11.0708651 Eh     change       -0.3898280E-04 Eh
 * total energy  :   -11.0708764 Eh     change       -0.1121659E-04 Eh
 * total energy  :   -11.0708764 Eh     change       -0.4198926E-08 Eh
   *** GEOMETRY OPTIMIZATION CONVERGED AFTER 14 ITERATIONS ***

 final structure:
================
5
 xtb: 6.2.2 (9d81278992624c895f80dd42a50cac0aa55982e2)
N        -0.68892384983456   -0.60926215239971    0.00404378390006
C         0.28286660124232    0.24230504514677    0.89802019751208
C         0.26912615624544    0.24591059684750   -0.90125689025024
C        -0.64910685543820    0.87512311421644    0.00670913657736
C         0.78603694778500   -0.75407660381101   -0.00751522773926

          :  Hamiltonian                  GFN2-xTB          :
         :: gradient norm              0.000992713385 Eh/a0 ::
         :: HOMO-LUMO gap              2.481206831213 eV    ::
         :: SCC energy               -11.198971205694 Eh    ::
         :: -> dispersion             -0.002479526552 Eh    ::
         :: repulsion energy           0.128094831218 Eh    ::

    * Orbital Energies and Occupations

         #    Occupation            Energy/Eh            Energy/eV
      -------------------------------------------------------------
         1        2.0000           -0.7940884             -21.6082
         2        2.0000           -0.6840479             -18.6139
         3        2.0000           -0.6660462             -18.1240
         4        2.0000           -0.6416018             -17.4589
         5        2.0000           -0.5507482             -14.9866
         6        2.0000           -0.5396946             -14.6858
         7        2.0000           -0.5042134             -13.7203
         8        2.0000           -0.5014570             -13.6453
         9        2.0000           -0.4971668             -13.5286
        10        2.0000           -0.4770778             -12.9819
        11        1.0000           -0.4216473             -11.4736 (HOMO)
        12                         -0.3304646              -8.9924 (LUMO)
        13                         -0.2449648              -6.6658
        14                         -0.2372440              -6.4557
        15                         -0.0976232              -2.6565
        16                         -0.0620923              -1.6896
        17                          0.0814926               2.2175
        18                          0.0942251               2.5640
        19                          0.2324173               6.3244
        20                          0.4138790              11.2622
      -------------------------------------------------------------
                  HL-Gap            0.0911827 Eh            2.4812 eV

     #   Z        covCN         q      C6AA      Î±(0)
     1   7 N      3.594    -0.084    22.867     7.102
     2   6 C      3.691     0.016    20.490     6.478
     3   6 C      3.691     0.016    20.490     6.478
     4   6 C      3.043     0.026    27.381     8.582
     5   6 C      3.043     0.026    27.380     8.582

Wiberg/Mayer (AO) data.
largest (>0.10) Wiberg bond orders for each atom
          total WBO             WBO to atom ...

molecular dipole:
                 x           y           z       tot (Debye)
 q only:        0.133       0.117      -0.001
   full:       -0.022      -0.018       0.000       0.072

 projected vibrational frequencies (cm-1)
eigval :       -0.00    -0.00    -0.00    -0.00     0.00     0.00
eigval :      297.08   431.69   696.55   774.74  1041.62  1051.70
eigval :     1082.31  1325.23  1422.90

   temp. (K)  partition function   enthalpy   heat capacity  entropy
                                   cal/mol     cal/K/mol   cal/K/mol   J/K/mol
  10.00  VIB   1.00                    0.000      0.000     -0.002
         ROT   63.0                   29.809      2.981     11.215
         INT   63.0                   29.809      2.981     11.214
         TR   0.290E+25               49.681      4.968     21.419
         TOT                          79.4904     7.9490    32.6331   136.5368

       T/K    H(0)-H(T)+PV         H(T)/Eh          T*S/Eh         G(T)/Eh
   ------------------------------------------------------------------------
    298.15    0.478561E-02    0.232930E-01    0.297920E-01   -0.649895E-02
    120.00    0.157196E-02    0.200794E-01    0.100822E-01    0.999720E-02
    100.00    0.129002E-02    0.197975E-01    0.814506E-02    0.116524E-01
     80.00    0.102076E-02    0.195282E-01    0.627596E-02    0.132522E-01
     60.00    0.761210E-03    0.192686E-01    0.448316E-02    0.147855E-01
     40.00    0.506735E-03    0.190142E-01    0.278252E-02    0.162317E-01
     20.00    0.253352E-03    0.187608E-01    0.121566E-02    0.175451E-01
     10.00    0.126676E-03    0.186341E-01    0.520041E-03    0.181141E-01 (used)
   ------------------------------------------------------------------------

         :::::::::::::::::::::::::::::::::::::::::::::::::::::
         ::                  THERMODYNAMIC                  ::
         :::::::::::::::::::::::::::::::::::::::::::::::::::::
         :: total free energy         -11.052762290707 Eh   ::
         ::.................................................::
         :: total energy              -11.070876360565 Eh   ::
         :: zero point energy           0.018507434994 Eh   ::
         :: G(RRHO) w/o ZPVE           -0.000393365135 Eh   ::
         :: G(RRHO) contrib.            0.018114069859 Eh   ::
         :::::::::::::::::::::::::::::::::::::::::::::::::::::

           -------------------------------------------------
          | TOTAL ENERGY              -11.070876360565 Eh   |
          | TOTAL ENTHALPY            -11.052242249556 Eh   |
          | TOTAL FREE ENERGY         -11.052762290707 Eh   |
          | GRADIENT NORM               0.000992591624 Eh/Î± |
          | HOMO-LUMO GAP               2.481206826046 eV   |
           -------------------------------------------------

 * finished run on 2020/05/12 at 11:44:18.758
