   * xtb version 6.2.2 (9d81278992624c895f80dd42a50cac0aa55982e2) compiled by '@Darwin' on 04/03/2020
          program call               : xtb --input C4N1_20_S_1.input C4N1_20_S_1.xyz --ohess --molden --namespace C4N1_20_S_1 output.out
          number of atoms            :                     5
          number of electrons        :                    21
          charge                     :                     0
          spin                       :                   0.5

   ID    Z sym.   atoms
    1    6 C      1, 3-5
    2    7 N      2

          :  Hamiltonian                  GFN2-xTB          :
 * total energy  :   -10.8911013 Eh     change       -0.4386926E-09 Eh
 * total energy  :   -10.9831375 Eh     change       -0.9203625E-01 Eh
 * total energy  :   -10.9838416 Eh     change       -0.7041156E-03 Eh
 * total energy  :   -11.0513935 Eh     change       -0.6755187E-01 Eh
 * total energy  :   -11.0609366 Eh     change       -0.9543147E-02 Eh
 * total energy  :   -11.0685276 Eh     change       -0.7590955E-02 Eh
 * total energy  :   -11.0681271 Eh     change        0.4004654E-03 Eh
 * total energy  :   -11.0697833 Eh     change       -0.1656167E-02 Eh
 * total energy  :   -11.0698272 Eh     change       -0.4394042E-04 Eh
 * total energy  :   -11.0698575 Eh     change       -0.3027582E-04 Eh
 * total energy  :   -11.0699827 Eh     change       -0.5920695E-03 Eh
 * total energy  :   -11.0701033 Eh     change       -0.1206044E-03 Eh
 * total energy  :   -11.0702501 Eh     change       -0.1468174E-03 Eh
 * total energy  :   -11.0512735 Eh     change        0.1897668E-01 Eh
 * total energy  :   -11.0702960 Eh     change       -0.1902260E-01 Eh
 * total energy  :   -11.0705186 Eh     change       -0.2225085E-03 Eh
 * total energy  :   -11.0706115 Eh     change       -0.9290709E-04 Eh
 * total energy  :   -11.0706191 Eh     change       -0.7647991E-05 Eh
 * total energy  :   -11.0706200 Eh     change       -0.8933444E-06 Eh
   *** GEOMETRY OPTIMIZATION CONVERGED AFTER 20 ITERATIONS ***

 final structure:
================
5
 xtb: 6.2.2 (9d81278992624c895f80dd42a50cac0aa55982e2)
C        -1.51873390938696   -0.60127025913928    0.18265094945835
N        -0.30148345310861    0.01501915623963    0.02070084121988
C         0.97533447169978   -0.18320596928778   -0.06932881019117
C        -1.34946400655245    0.82034509105394    0.04156059934979
C         2.19434689734825   -0.05088901886651   -0.17558357983684

          :  Hamiltonian                  GFN2-xTB          :
         :: gradient norm              0.000511699650 Eh/a0 ::
         :: HOMO-LUMO gap              1.952437224066 eV    ::
         :: SCC energy               -11.271606224847 Eh    ::
         :: -> dispersion             -0.002881791287 Eh    ::
         :: repulsion energy           0.200986279133 Eh    ::

    * Orbital Energies and Occupations

         #    Occupation            Energy/Eh            Energy/eV
      -------------------------------------------------------------
         1        2.0000           -0.7608040             -20.7025
         2        2.0000           -0.7063030             -19.2195
         3        2.0000           -0.6522323             -17.7481
         4        2.0000           -0.6446159             -17.5409
         5        2.0000           -0.6123354             -16.6625
         6        2.0000           -0.5448094             -14.8250
         7        2.0000           -0.4995853             -13.5944
         8        2.0000           -0.4723134             -12.8523
         9        2.0000           -0.4494849             -12.2311
        10        1.9691           -0.4383670             -11.9286
        11        1.0309           -0.4318190             -11.7504 (HOMO)
        12                         -0.3600681              -9.7980 (LUMO)
        13                         -0.3126412              -8.5074
        14                         -0.2327667              -6.3339
        15                         -0.1731159              -4.7107
        16                         -0.0570366              -1.5520
        17                          0.0118337               0.3220
        18                          0.3036827               8.2636
        19                          0.4572313              12.4419
        20                          1.1259083              30.6375
      -------------------------------------------------------------
                  HL-Gap            0.0717509 Eh            1.9524 eV

     #   Z        covCN         q      C6AA      Î±(0)
     1   6 C      1.891    -0.080    33.318     9.322
     2   7 N      2.731     0.205    17.857     6.276
     3   6 C      1.895     0.030    30.338     8.896
     4   6 C      1.892    -0.048    32.405     9.194
     5   6 C      0.982    -0.108    39.355    10.537

Wiberg/Mayer (AO) data.
largest (>0.10) Wiberg bond orders for each atom
          total WBO             WBO to atom ...

molecular dipole:
                 x           y           z       tot (Debye)
 q only:       -0.155       0.023       0.008
   full:        0.054       0.009      -0.012       0.141

 projected vibrational frequencies (cm-1)
eigval :       -0.00    -0.00    -0.00     0.00     0.00     0.00
eigval :      188.93   206.01   460.40   493.23   609.28   909.43
eigval :     1095.85  1691.02  1802.42

   temp. (K)  partition function   enthalpy   heat capacity  entropy
                                   cal/mol     cal/K/mol   cal/K/mol   J/K/mol
  10.00  VIB   1.00                    0.000      0.000     -0.011
         ROT   213.                   29.809      2.981     13.631
         INT   213.                   29.809      2.981     13.620
         TR   0.290E+25               49.681      4.968     21.419
         TOT                          79.4904     7.9490    35.0394   146.6050

       T/K    H(0)-H(T)+PV         H(T)/Eh          T*S/Eh         G(T)/Eh
   ------------------------------------------------------------------------
    298.15    0.562674E-02    0.226141E-01    0.325118E-01   -0.989770E-02
    120.00    0.172303E-02    0.187104E-01    0.107608E-01    0.794957E-02
    100.00    0.138375E-02    0.183711E-01    0.865846E-02    0.971263E-02
     80.00    0.106776E-02    0.180551E-01    0.664516E-02    0.114099E-01
     60.00    0.776248E-03    0.177636E-01    0.473276E-02    0.130308E-01
     40.00    0.508237E-03    0.174956E-01    0.293828E-02    0.145573E-01
     20.00    0.253353E-03    0.172407E-01    0.129253E-02    0.159482E-01
     10.00    0.126676E-03    0.171140E-01    0.558389E-03    0.165556E-01 (used)
   ------------------------------------------------------------------------

         :::::::::::::::::::::::::::::::::::::::::::::::::::::
         ::                  THERMODYNAMIC                  ::
         :::::::::::::::::::::::::::::::::::::::::::::::::::::
         :: total free energy         -11.054064384444 Eh   ::
         ::.................................................::
         :: total energy              -11.070620006113 Eh   ::
         :: zero point energy           0.016987334651 Eh   ::
         :: G(RRHO) w/o ZPVE           -0.000431712982 Eh   ::
         :: G(RRHO) contrib.            0.016555621669 Eh   ::
         :::::::::::::::::::::::::::::::::::::::::::::::::::::

           -------------------------------------------------
          | TOTAL ENERGY              -11.070620006113 Eh   |
          | TOTAL ENTHALPY            -11.053505995446 Eh   |
          | TOTAL FREE ENERGY         -11.054064384444 Eh   |
          | GRADIENT NORM               0.000513596957 Eh/Î± |
          | HOMO-LUMO GAP               1.952440219165 eV   |
           -------------------------------------------------

 * finished run on 2020/05/12 at 11:44:06.802
