   * xtb version 6.2.2 (9d81278992624c895f80dd42a50cac0aa55982e2) compiled by '@Darwin' on 04/03/2020
          program call               : xtb --input H1C4_2_S_3.input H1C4_2_S_3.xyz --ohess --molden --namespace H1C4_2_S_3 output.out
          number of atoms            :                     5
          number of electrons        :                    17
          charge                     :                     0
          spin                       :                   1.5

   ID    Z sym.   atoms
    1    6 C      1-4
    2    1 H      5

          :  Hamiltonian                  GFN2-xTB          :
 * total energy  :    -8.5205414 Eh     change       -0.1363887E-10 Eh
 * total energy  :    -8.6130007 Eh     change       -0.9245934E-01 Eh
 * total energy  :    -8.6328060 Eh     change       -0.1980531E-01 Eh
 * total energy  :    -8.6460787 Eh     change       -0.1327268E-01 Eh
 * total energy  :    -8.6494895 Eh     change       -0.3410795E-02 Eh
 * total energy  :    -8.6541361 Eh     change       -0.4646596E-02 Eh
 * total energy  :    -8.6571311 Eh     change       -0.2994971E-02 Eh
 * total energy  :    -8.6547013 Eh     change        0.2429747E-02 Eh
 * total energy  :    -8.6585271 Eh     change       -0.3825805E-02 Eh
 * total energy  :    -8.6584516 Eh     change        0.7557895E-04 Eh
 * total energy  :    -8.6614127 Eh     change       -0.3993536E-04 Eh
 * total energy  :    -8.6614330 Eh     change       -0.2028870E-04 Eh
 * total energy  :    -8.6614636 Eh     change       -0.3062891E-04 Eh
 * total energy  :    -8.6614906 Eh     change       -0.2695921E-04 Eh
 * total energy  :    -8.6610824 Eh     change        0.4081908E-03 Eh
 * total energy  :    -8.6615196 Eh     change       -0.4371632E-03 Eh
 * total energy  :    -8.6615251 Eh     change       -0.5552852E-05 Eh
 * total energy  :    -8.6615308 Eh     change       -0.5663025E-05 Eh
 * total energy  :    -8.6615346 Eh     change       -0.3843421E-05 Eh
   *** GEOMETRY OPTIMIZATION CONVERGED AFTER 26 ITERATIONS ***

 final structure:
================
5
 xtb: 6.2.2 (9d81278992624c895f80dd42a50cac0aa55982e2)
C        -1.37683859623100    0.21782688708754   -0.26004878910265
C        -0.07095189215540    0.16664918324767   -0.27072548504709
C         1.13506892104301   -0.11814260558999    0.10741368345110
C         2.43186876293823   -0.09511478873618    0.00829636469246
H        -2.11914719559488   -0.17121867600907    0.41506522600626

          :  Hamiltonian                  GFN2-xTB          :
         :: gradient norm              0.000667807366 Eh/a0 ::
         :: HOMO-LUMO gap              0.828189738086 eV    ::
         :: SCC energy                -8.858117333872 Eh    ::
         :: -> dispersion             -0.002158061573 Eh    ::
         :: repulsion energy           0.196583063019 Eh    ::

    * Orbital Energies and Occupations

         #    Occupation            Energy/Eh            Energy/eV
      -------------------------------------------------------------
         1        2.0000           -0.6604478             -17.9717
         2        2.0000           -0.6438761             -17.5208
         3        2.0000           -0.5984592             -16.2849
         4        2.0000           -0.5386497             -14.6574
         5        2.0000           -0.4977961             -13.5457
         6        2.0000           -0.4871396             -13.2557
         7        2.0000           -0.4390981             -11.9485
         8        1.0000           -0.4195792             -11.4173
         9        1.0000           -0.4037712             -10.9872
        10        1.0000           -0.3199078              -8.7051 (HOMO)
        11        0.0000           -0.2894723              -7.8769 (LUMO)
        12                         -0.1698985              -4.6232
        13                         -0.1276637              -3.4739
        14                          0.1433074               3.8996
        15                          0.2645140               7.1978
        16                          0.6677868              18.1714
        17                          1.1078873              30.1471
      -------------------------------------------------------------
                  HL-Gap            0.0304354 Eh            0.8282 eV

     #   Z        covCN         q      C6AA      Î±(0)
     1   6 C      1.908    -0.048    32.409     9.194
     2   6 C      1.964     0.020    30.556     8.927
     3   6 C      1.963     0.059    29.581     8.783
     4   6 C      0.983    -0.122    39.874    10.607
     5   1 H      0.926     0.092     1.858     2.131

Wiberg/Mayer (AO) data.
largest (>0.10) Wiberg bond orders for each atom
          total WBO             WBO to atom ...

molecular dipole:
                 x           y           z       tot (Debye)
 q only:       -0.683      -0.035       0.096
   full:       -0.983      -0.173       0.330       2.672

 projected vibrational frequencies (cm-1)
eigval :       -0.00    -0.00    -0.00     0.00     0.00     0.00
eigval :      113.83   189.35   388.90   566.58   743.70  1029.57
eigval :     1443.64  1899.73  3025.20

   temp. (K)  partition function   enthalpy   heat capacity  entropy
                                   cal/mol     cal/K/mol   cal/K/mol   J/K/mol
  10.00  VIB   1.00                    0.000      0.000     -0.030
         ROT   58.6                   29.809      2.981     11.070
         INT   58.6                   29.809      2.981     11.041
         TR   0.204E+25               49.681      4.968     20.719
         TOT                          79.4904     7.9491    31.7597   132.8827

       T/K    H(0)-H(T)+PV         H(T)/Eh          T*S/Eh         G(T)/Eh
   ------------------------------------------------------------------------
    298.15    0.569888E-02    0.271148E-01    0.313880E-01   -0.427324E-02
    120.00    0.181768E-02    0.232336E-01    0.103131E-01    0.129205E-01
    100.00    0.145992E-02    0.228758E-01    0.826919E-02    0.146066E-01
     80.00    0.112164E-02    0.225376E-01    0.631434E-02    0.162232E-01
     60.00    0.805723E-03    0.222216E-01    0.446389E-02    0.177578E-01
     40.00    0.516448E-03    0.219324E-01    0.274194E-02    0.191904E-01
     20.00    0.253497E-03    0.216694E-01    0.118886E-02    0.204806E-01
     10.00    0.126676E-03    0.215426E-01    0.506124E-03    0.210365E-01 (used)
   ------------------------------------------------------------------------

         :::::::::::::::::::::::::::::::::::::::::::::::::::::
         ::                  THERMODYNAMIC                  ::
         :::::::::::::::::::::::::::::::::::::::::::::::::::::
         :: total free energy          -8.640498170633 Eh   ::
         ::.................................................::
         :: total energy               -8.661534638787 Eh   ::
         :: zero point energy           0.021415915614 Eh   ::
         :: G(RRHO) w/o ZPVE           -0.000379447460 Eh   ::
         :: G(RRHO) contrib.            0.021036468154 Eh   ::
         :::::::::::::::::::::::::::::::::::::::::::::::::::::

           -------------------------------------------------
          | TOTAL ENERGY               -8.661534638787 Eh   |
          | TOTAL ENTHALPY             -8.639992047117 Eh   |
          | TOTAL FREE ENERGY          -8.640498170633 Eh   |
          | GRADIENT NORM               0.000667264565 Eh/Î± |
          | HOMO-LUMO GAP               0.828189926268 eV   |
           -------------------------------------------------

 * finished run on 2020/05/12 at 11:45:08.900
