   * xtb version 6.2.2 (9d81278992624c895f80dd42a50cac0aa55982e2) compiled by '@Darwin' on 04/03/2020
          program call               : xtb --input H1C3N1_1_S_2.input H1C3N1_1_S_2.xyz --ohess --molden --namespace H1C3N1_1_S_2 output.out
          number of atoms            :                     5
          number of electrons        :                    18
          charge                     :                     0
          spin                       :                   1.0

   ID    Z sym.   atoms
    1    6 C      1-3
    2    7 N      4
    3    1 H      5

          :  Hamiltonian                  GFN2-xTB          :
 * total energy  :    -9.2674890 Eh     change        0.2493124E-08 Eh
 * total energy  :    -9.2927527 Eh     change       -0.2526375E-01 Eh
 * total energy  :    -9.3335688 Eh     change       -0.4081608E-01 Eh
 * total energy  :    -9.3827573 Eh     change       -0.4918848E-01 Eh
 * total energy  :    -9.3069249 Eh     change        0.7583239E-01 Eh
 * total energy  :    -9.3770833 Eh     change       -0.7015833E-01 Eh
 * total energy  :    -9.4337715 Eh     change       -0.5668825E-01 Eh
 * total energy  :    -9.3967068 Eh     change        0.3706471E-01 Eh
 * total energy  :    -9.4556678 Eh     change       -0.5896100E-01 Eh
 * total energy  :    -9.4661908 Eh     change       -0.1052305E-01 Eh
 * total energy  :    -9.5411251 Eh     change        0.7601144E-04 Eh
 * total energy  :    -9.5412549 Eh     change       -0.1298686E-03 Eh
 * total energy  :    -9.5412596 Eh     change       -0.4698857E-05 Eh
 * total energy  :    -9.5411947 Eh     change        0.6496687E-04 Eh
 * total energy  :    -9.5412452 Eh     change       -0.5054300E-04 Eh
 * total energy  :    -9.5412312 Eh     change        0.1401326E-04 Eh
 * total energy  :    -9.5412599 Eh     change       -0.2868130E-04 Eh
 * total energy  :    -9.5412665 Eh     change       -0.6668738E-05 Eh
 * total energy  :    -9.5412669 Eh     change       -0.3512153E-06 Eh
   *** GEOMETRY OPTIMIZATION CONVERGED AFTER 49 ITERATIONS ***

 final structure:
================
5
 xtb: 6.2.2 (9d81278992624c895f80dd42a50cac0aa55982e2)
C        -0.13132008041807   -1.91082697122061   -0.68123056096945
C         0.03754280479188    0.54158115480997    0.16309365289753
C        -0.04551322148553   -0.71646815693441   -0.49172128644092
N         0.12728346758114    1.68587486706190   -0.25470304706984
H         0.01200602953057    0.39983910628316    1.26456124158269

          :  Hamiltonian                  GFN2-xTB          :
         :: gradient norm              0.000363343056 Eh/a0 ::
         :: HOMO-LUMO gap              2.553698821210 eV    ::
         :: SCC energy                -9.746015946809 Eh    ::
         :: -> dispersion             -0.002097909095 Eh    ::
         :: repulsion energy           0.204749029933 Eh    ::

    * Orbital Energies and Occupations

         #    Occupation            Energy/Eh            Energy/eV
      -------------------------------------------------------------
         1        2.0000           -0.6827286             -18.5780
         2        2.0000           -0.6581230             -17.9084
         3        2.0000           -0.6086875             -16.5632
         4        2.0000           -0.5739245             -15.6173
         5        2.0000           -0.5232738             -14.2390
         6        2.0000           -0.4735809             -12.8868
         7        2.0000           -0.4568164             -12.4306
         8        2.0000           -0.4548466             -12.3770
         9        1.0000           -0.4269838             -11.6188
        10        1.0000           -0.3873806             -10.5412 (HOMO)
        11                         -0.2935338              -7.9875 (LUMO)
        12                         -0.2114125              -5.7528
        13                         -0.1473596              -4.0099
        14                          0.1337782               3.6403
        15                          0.1956200               5.3231
        16                          0.6472309              17.6120
        17                          1.1042196              30.0473
      -------------------------------------------------------------
                  HL-Gap            0.0938468 Eh            2.5537 eV

     #   Z        covCN         q      C6AA      Î±(0)
     1   6 C      0.982    -0.069    38.073    10.364
     2   6 C      2.812     0.120    25.351     8.249
     3   6 C      1.965     0.006    30.915     8.979
     4   7 N      0.915    -0.188    25.060     7.238
     5   1 H      0.921     0.131     1.527     1.932

Wiberg/Mayer (AO) data.
largest (>0.10) Wiberg bond orders for each atom
          total WBO             WBO to atom ...

molecular dipole:
                 x           y           z       tot (Debye)
 q only:       -0.017      -0.137       0.524
   full:       -0.033      -0.331       0.636       1.823

 projected vibrational frequencies (cm-1)
eigval :       -0.00    -0.00     0.00     0.00     0.00     0.00
eigval :      196.72   227.03   498.01   705.39   944.02  1073.88
eigval :     1796.83  2073.68  2663.31

   temp. (K)  partition function   enthalpy   heat capacity  entropy
                                   cal/mol     cal/K/mol   cal/K/mol   J/K/mol
  10.00  VIB   1.00                    0.000      0.000     -0.008
         ROT   100.                   29.809      2.981     12.137
         INT   100.                   29.809      2.981     12.129
         TR   0.217E+25               49.681      4.968     20.838
         TOT                          79.4904     7.9490    32.9665   137.9320

       T/K    H(0)-H(T)+PV         H(T)/Eh          T*S/Eh         G(T)/Eh
   ------------------------------------------------------------------------
    298.15    0.527363E-02    0.284628E-01    0.309663E-01   -0.250352E-02
    120.00    0.169306E-02    0.248822E-01    0.103204E-01    0.145618E-01
    100.00    0.136586E-02    0.245550E-01    0.830240E-02    0.162526E-01
     80.00    0.105829E-02    0.242474E-01    0.636777E-02    0.178797E-01
     60.00    0.772647E-03    0.239618E-01    0.452975E-02    0.194320E-01
     40.00    0.507756E-03    0.236969E-01    0.280542E-02    0.208915E-01
     20.00    0.253353E-03    0.234425E-01    0.122641E-02    0.222161E-01
     10.00    0.126676E-03    0.233158E-01    0.525355E-03    0.227905E-01 (used)
   ------------------------------------------------------------------------

         :::::::::::::::::::::::::::::::::::::::::::::::::::::
         ::                  THERMODYNAMIC                  ::
         :::::::::::::::::::::::::::::::::::::::::::::::::::::
         :: total free energy          -9.518476431394 Eh   ::
         ::.................................................::
         :: total energy               -9.541266899460 Eh   ::
         :: zero point energy           0.023189147196 Eh   ::
         :: G(RRHO) w/o ZPVE           -0.000398679131 Eh   ::
         :: G(RRHO) contrib.            0.022790468066 Eh   ::
         :::::::::::::::::::::::::::::::::::::::::::::::::::::

           -------------------------------------------------
          | TOTAL ENERGY               -9.541266899460 Eh   |
          | TOTAL ENTHALPY             -9.517951076248 Eh   |
          | TOTAL FREE ENERGY          -9.518476431394 Eh   |
          | GRADIENT NORM               0.000363307620 Eh/Î± |
          | HOMO-LUMO GAP               2.553701720847 eV   |
           -------------------------------------------------

 * finished run on 2020/05/12 at 11:44:50.663
