   * xtb version 6.2.2 (9d81278992624c895f80dd42a50cac0aa55982e2) compiled by '@Darwin' on 04/03/2020
          program call               : xtb --input H1C3N1_24_S_0.input H1C3N1_24_S_0.xyz --ohess --molden --namespace H1C3N1_24_S_0 output.out
          number of atoms            :                     5
          number of electrons        :                    18
          charge                     :                     0
          spin                       :                   0.0

   ID    Z sym.   atoms
    1    6 C      1-3
    2    7 N      4
    3    1 H      5

          :  Hamiltonian                  GFN2-xTB          :
 * total energy  :    -9.4782962 Eh     change       -0.4692673E-09 Eh
 * total energy  :    -9.5383848 Eh     change       -0.6008856E-01 Eh
 * total energy  :    -9.5513088 Eh     change       -0.1292404E-01 Eh
 * total energy  :    -9.5723604 Eh     change       -0.2105156E-01 Eh
 * total energy  :    -9.5754726 Eh     change       -0.3112204E-02 Eh
 * total energy  :    -9.5779160 Eh     change       -0.2443466E-02 Eh
 * total energy  :    -9.5787138 Eh     change       -0.7977243E-03 Eh
 * total energy  :    -9.5795747 Eh     change       -0.8609035E-03 Eh
 * total energy  :    -9.5800033 Eh     change       -0.4286199E-03 Eh
 * total energy  :    -9.5802562 Eh     change       -0.2529489E-03 Eh
 * total energy  :    -9.5972566 Eh     change       -0.5321856E-04 Eh
 * total energy  :    -9.5972719 Eh     change       -0.1525261E-04 Eh
 * total energy  :    -9.5972856 Eh     change       -0.1375389E-04 Eh
 * total energy  :    -9.5973257 Eh     change       -0.4005570E-04 Eh
 * total energy  :    -9.5973670 Eh     change       -0.4135863E-04 Eh
 * total energy  :    -9.5974101 Eh     change       -0.4303920E-04 Eh
 * total energy  :    -9.5974367 Eh     change       -0.2663523E-04 Eh
 * total energy  :    -9.5974464 Eh     change       -0.9682559E-05 Eh
 * total energy  :    -9.5974486 Eh     change       -0.2221054E-05 Eh
   *** GEOMETRY OPTIMIZATION CONVERGED AFTER 28 ITERATIONS ***

 final structure:
================
5
 xtb: 6.2.2 (9d81278992624c895f80dd42a50cac0aa55982e2)
C        -0.38271950678481   -0.83990920695565    0.04611577453964
C         0.69110219722074   -0.09571786790103    0.04226078577870
C        -0.50418729013557    0.81199298980091   -0.08790964174587
N        -1.55295072438921    0.16012968152960   -0.09012694060467
H         1.74875432408885   -0.03649559647384    0.08965902203219

          :  Hamiltonian                  GFN2-xTB          :
         :: gradient norm              0.000458255947 Eh/a0 ::
         :: HOMO-LUMO gap              2.988677341912 eV    ::
         :: SCC energy                -9.756731397212 Eh    ::
         :: -> dispersion             -0.002069149423 Eh    ::
         :: repulsion energy           0.159282779346 Eh    ::

    * Orbital Energies and Occupations

         #    Occupation            Energy/Eh            Energy/eV
      -------------------------------------------------------------
         1        2.0000           -0.7249956             -19.7281
         2        2.0000           -0.6504115             -17.6986
         3        2.0000           -0.5962870             -16.2258
         4        2.0000           -0.5592657             -15.2184
         5        2.0000           -0.5487998             -14.9336
         6        2.0000           -0.5395733             -14.6825
         7        2.0000           -0.4495004             -12.2315
         8        2.0000           -0.4386016             -11.9350
         9        2.0000           -0.4224936             -11.4966 (HOMO)
        10                         -0.3126616              -8.5080 (LUMO)
        11                         -0.2950227              -8.0280
        12                         -0.2052888              -5.5862
        13                         -0.0517054              -1.4070
        14                          0.0471512               1.2830
        15                          0.1751330               4.7656
        16                          0.5325894              14.4925
        17                          0.7064590              19.2237
      -------------------------------------------------------------
                  HL-Gap            0.1098320 Eh            2.9887 eV

     #   Z        covCN         q      C6AA      Î±(0)
     1   6 C      2.823     0.007    27.848     8.647
     2   6 C      2.923    -0.007    28.189     8.707
     3   6 C      2.832     0.076    26.301     8.404
     4   7 N      1.847    -0.161    25.269     7.450
     5   1 H      0.927     0.084     1.934     2.175

Wiberg/Mayer (AO) data.
largest (>0.10) Wiberg bond orders for each atom
          total WBO             WBO to atom ...

molecular dipole:
                 x           y           z       tot (Debye)
 q only:        0.664       0.051       0.029
Molecule has the following symmetry elements: (sigma)
It seems to be the Cs point group
   full:        1.099       0.206       0.039       2.844

 projected vibrational frequencies (cm-1)
eigval :       -0.00    -0.00    -0.00    -0.00     0.00     0.00
eigval :      225.36   460.46   614.26   773.50   909.41   926.18
eigval :     1657.44  1759.18  3267.96

   temp. (K)  partition function   enthalpy   heat capacity  entropy
                                   cal/mol     cal/K/mol   cal/K/mol   J/K/mol
  10.00  VIB   1.00                    0.000      0.000     -0.004
         ROT   86.0                   29.809      2.981     11.832
         INT   86.0                   29.809      2.981     11.829
         TR   0.217E+25               49.681      4.968     20.838
         TOT                          79.4904     7.9490    32.6665   136.6766

       T/K    H(0)-H(T)+PV         H(T)/Eh          T*S/Eh         G(T)/Eh
   ------------------------------------------------------------------------
    298.15    0.489783E-02    0.290322E-01    0.300549E-01   -0.102270E-02
    120.00    0.160461E-02    0.257390E-01    0.101368E-01    0.156022E-01
    100.00    0.131177E-02    0.254461E-01    0.818060E-02    0.172655E-01
     80.00    0.103214E-02    0.251665E-01    0.629515E-02    0.188714E-01
     60.00    0.764730E-03    0.248991E-01    0.449083E-02    0.204083E-01
     40.00    0.507014E-03    0.246414E-01    0.278510E-02    0.218563E-01
     20.00    0.253352E-03    0.243877E-01    0.121676E-02    0.231710E-01
     10.00    0.126676E-03    0.242610E-01    0.520574E-03    0.237405E-01 (used)
   ------------------------------------------------------------------------

         :::::::::::::::::::::::::::::::::::::::::::::::::::::
         ::                  THERMODYNAMIC                  ::
         :::::::::::::::::::::::::::::::::::::::::::::::::::::
         :: total free energy          -9.573708149240 Eh   ::
         ::.................................................::
         :: total energy               -9.597448622187 Eh   ::
         :: zero point energy           0.024134370768 Eh   ::
         :: G(RRHO) w/o ZPVE           -0.000393897821 Eh   ::
         :: G(RRHO) contrib.            0.023740472947 Eh   ::
         :::::::::::::::::::::::::::::::::::::::::::::::::::::

           -------------------------------------------------
          | TOTAL ENERGY               -9.597448622187 Eh   |
          | TOTAL ENTHALPY             -9.573187575403 Eh   |
          | TOTAL FREE ENERGY          -9.573708149240 Eh   |
          | GRADIENT NORM               0.000458575950 Eh/Î± |
          | HOMO-LUMO GAP               2.988680470220 eV   |
           -------------------------------------------------

 * finished run on 2020/05/12 at 11:44:59.870
