   * xtb version 6.2.2 (9d81278992624c895f80dd42a50cac0aa55982e2) compiled by '@Darwin' on 04/03/2020
          program call               : xtb --input C4N1_13_S_3.input C4N1_13_S_3.xyz --ohess --molden --namespace C4N1_13_S_3 output.out
          number of atoms            :                     5
          number of electrons        :                    21
          charge                     :                     0
          spin                       :                   1.5

   ID    Z sym.   atoms
    1    6 C      1, 3-5
    2    7 N      2

          :  Hamiltonian                  GFN2-xTB          :
 * total energy  :   -10.8415877 Eh     change       -0.3339336E-08 Eh
 * total energy  :   -10.8912948 Eh     change       -0.4970703E-01 Eh
 * total energy  :   -10.9077590 Eh     change       -0.1646420E-01 Eh
 * total energy  :   -10.9453733 Eh     change       -0.3761435E-01 Eh
 * total energy  :   -10.9670791 Eh     change       -0.2170582E-01 Eh
 * total energy  :   -10.9835776 Eh     change       -0.1649850E-01 Eh
 * total energy  :   -11.0039311 Eh     change       -0.2035347E-01 Eh
 * total energy  :   -11.0119956 Eh     change       -0.8064506E-02 Eh
 * total energy  :   -11.0232941 Eh     change       -0.1129846E-01 Eh
 * total energy  :   -11.0401326 Eh     change       -0.1683851E-01 Eh
 * total energy  :   -11.0959139 Eh     change       -0.7521158E-04 Eh
 * total energy  :   -11.0959252 Eh     change       -0.1131608E-04 Eh
 * total energy  :   -11.0959354 Eh     change       -0.1015875E-04 Eh
 * total energy  :   -11.0959532 Eh     change       -0.1786054E-04 Eh
 * total energy  :   -11.0959695 Eh     change       -0.1631171E-04 Eh
 * total energy  :   -11.0960097 Eh     change       -0.4015141E-04 Eh
 * total energy  :   -11.0960236 Eh     change       -0.1395887E-04 Eh
 * total energy  :   -11.0960321 Eh     change       -0.8478123E-05 Eh
 * total energy  :   -11.0960338 Eh     change       -0.1701409E-05 Eh
   *** GEOMETRY OPTIMIZATION CONVERGED AFTER 37 ITERATIONS ***

 final structure:
================
5
 xtb: 6.2.2 (9d81278992624c895f80dd42a50cac0aa55982e2)
C        -2.46333415435652   -0.16016619295168   -0.02398813986468
N        -1.26757201795587   -0.08099218641012   -0.00528496289867
C         1.26201426796553    0.07376325861616    0.01807088316510
C        -0.02981762286509    0.01426764784152   -0.00601168707946
C         2.49870952721193    0.15312747290414    0.01721390667772

          :  Hamiltonian                  GFN2-xTB          :
         :: gradient norm              0.000569597084 Eh/a0 ::
         :: HOMO-LUMO gap              3.453248112411 eV    ::
         :: SCC energy               -11.367713821809 Eh    ::
         :: -> dispersion             -0.002675357112 Eh    ::
         :: repulsion energy           0.271681110803 Eh    ::

    * Orbital Energies and Occupations

         #    Occupation            Energy/Eh            Energy/eV
      -------------------------------------------------------------
         1        2.0000           -0.6972537             -18.9732
         2        2.0000           -0.6703903             -18.2422
         3        2.0000           -0.6525044             -17.7555
         4        2.0000           -0.6042393             -16.4422
         5        2.0000           -0.5577009             -15.1758
         6        2.0000           -0.5576970             -15.1757
         7        2.0000           -0.4808388             -13.0843
         8        2.0000           -0.4808227             -13.0839
         9        2.0000           -0.4566007             -12.4247
        10        1.0000           -0.4325610             -11.7706
        11        1.0000           -0.3676009             -10.0029
        12        1.0000           -0.3675582             -10.0018 (HOMO)
        13                         -0.2406534              -6.5485 (LUMO)
        14                         -0.2406015              -6.5471
        15                         -0.1090517              -2.9674
        16                         -0.1089225              -2.9639
        17                          0.0581480               1.5823
        18                          0.4883992              13.2900
        19                          0.9904805              26.9523
        20                          1.4357275              39.0681
      -------------------------------------------------------------
                  HL-Gap            0.1269048 Eh            3.4533 eV

     #   Z        covCN         q      C6AA      Î±(0)
     1   6 C      0.920    -0.134    39.810    10.564
     2   7 N      1.822     0.098    20.174     6.655
     3   6 C      1.962     0.021    30.530     8.923
     4   6 C      1.903     0.056    29.688     8.800
     5   6 C      0.983    -0.041    37.192    10.244

Wiberg/Mayer (AO) data.
largest (>0.10) Wiberg bond orders for each atom
          total WBO             WBO to atom ...

molecular dipole:
                 x           y           z       tot (Debye)
 q only:        0.242       0.018       0.004
   full:        0.661       0.045       0.010       1.683

 projected vibrational frequencies (cm-1)
eigval :       -0.00    -0.00     0.00     0.00     0.00     0.00
eigval :       74.91   183.56   212.22   355.46   355.61   829.89
eigval :     1648.40  1889.39  1994.91

   temp. (K)  partition function   enthalpy   heat capacity  entropy
                                   cal/mol     cal/K/mol   cal/K/mol   J/K/mol
  10.00  VIB   1.00                    0.004      0.005     -0.050
         ROT   6.80                   29.809      2.981      6.790
         INT   6.80                   29.813      2.986      6.740
         TR   0.290E+25               49.681      4.968     21.419
         TOT                          79.4949     7.9539    28.1598   117.8205

       T/K    H(0)-H(T)+PV         H(T)/Eh          T*S/Eh         G(T)/Eh
   ------------------------------------------------------------------------
    298.15    0.647427E-02    0.236616E-01    0.312908E-01   -0.762915E-02
    120.00    0.198766E-02    0.191750E-01    0.992362E-02    0.925137E-02
    100.00    0.157457E-02    0.187619E-01    0.789765E-02    0.108642E-01
     80.00    0.119247E-02    0.183798E-01    0.598129E-02    0.123985E-01
     60.00    0.844972E-03    0.180323E-01    0.418963E-02    0.138427E-01
     40.00    0.533058E-03    0.177204E-01    0.254246E-02    0.151779E-01
     20.00    0.254920E-03    0.174423E-01    0.107845E-02    0.163638E-01
     10.00    0.126683E-03    0.173140E-01    0.448755E-03    0.168653E-01 (used)
   ------------------------------------------------------------------------

         :::::::::::::::::::::::::::::::::::::::::::::::::::::
         ::                  THERMODYNAMIC                  ::
         :::::::::::::::::::::::::::::::::::::::::::::::::::::
         :: total free energy         -11.079168566725 Eh   ::
         ::.................................................::
         :: total energy              -11.096033827664 Eh   ::
         :: zero point energy           0.017187332532 Eh   ::
         :: G(RRHO) w/o ZPVE           -0.000322071593 Eh   ::
         :: G(RRHO) contrib.            0.016865260939 Eh   ::
         :::::::::::::::::::::::::::::::::::::::::::::::::::::

           -------------------------------------------------
          | TOTAL ENERGY              -11.096033827664 Eh   |
          | TOTAL ENTHALPY            -11.078719811994 Eh   |
          | TOTAL FREE ENERGY         -11.079168566725 Eh   |
          | GRADIENT NORM               0.000569815804 Eh/Î± |
          | HOMO-LUMO GAP               3.453255302161 eV   |
           -------------------------------------------------

 * finished run on 2020/05/12 at 11:44:03.816
