 Gaussian 16, Revision B.01,

 -----------------------------------------------------------------
 #P UM062X/cc-pvtz nosymm opt(noeigentest) optcyc=120 freq scf=xqc
 -----------------------------------------------------------------

 -----
 Title
 -----
 Symbolic Z-matrix:
 Charge =  0 Multiplicity = 1

 SCF Done:  E(UM062X) =  -265.517422881     A.U. after   18 cycles
 SCF Done:  E(UM062X) =  -265.523889086     A.U. after   15 cycles
 SCF Done:  E(UM062X) =  -265.524089624     A.U. after   12 cycles
 SCF Done:  E(UM062X) =  -265.524090217     A.U. after   10 cycles
 SCF Done:  E(UM062X) =  -265.524090695     A.U. after   10 cycles
 SCF Done:  E(UM062X) =  -265.524091448     A.U. after    9 cycles
 Optimization completed.
    -- Stationary point found.
 Normal termination of Gaussian 16 at Mon Oct 12 17:21:47 2020.

 -------------------------------------------------------------------
 #P Geom=AllCheck Guess=TCheck SCRF=Check GenChk UM062X/CC-pVTZ Freq
 -------------------------------------------------------------------

 Structure from the checkpoint file:  "input.chk"
 -----
 Title
 -----
 Charge =  0 Multiplicity = 1

 SCF Done:  E(UM062X) =  -265.524091448     A.U. after    1 cycles

  Exact polarizability:  29.217   0.000  29.217   0.105  -0.000 161.364
 Approx polarizability:  35.988   0.000  35.988   0.208  -0.000 304.224

                      1                      2                      3
                      A                      A                      A
 Frequencies --     69.8459               185.8578               185.8634
 Red. masses --     12.7565                12.0853                12.0813
 Frc consts  --      0.0367                 0.2460                 0.2459
 IR Inten    --      2.6743                 3.3496                 3.3987

                      4                      5                      6
                      A                      A                      A
 Frequencies --    556.7843               556.9362               589.6871
 Red. masses --     12.0372                12.0306                12.4329
 Frc consts  --      2.1986                 2.1986                 2.5472
 IR Inten    --      4.3225                 4.4225                33.6555

                      7                      8                      9
                      A                      A                      A
 Frequencies --    589.7449               671.3164              1323.7702
 Red. masses --     12.4488                13.0184                12.5730
 Frc consts  --      2.5510                 3.4567                12.9812
 IR Inten    --     34.0045                 0.1825                 0.3408

                     10                     11                     12
                      A                      A                      A
 Frequencies --   1968.4434              2264.6643              2372.0352
 Red. masses --     12.3368                12.1205                12.4501
 Frc consts  --     28.1642                36.6251                41.2730
 IR Inten    --    501.5354              2164.2518              3898.8762

 - Thermochemistry -
 -------------------
 Temperature   298.150 Kelvin.  Pressure   1.00000 Atm.
 Atom     1 has atomic number  6 and mass  12.00000

 Molecular mass:    75.99491 amu.
 Principal axes and moments of inertia in atomic units:
                           1         2         3
     Eigenvalues --     0.000131315.044141315.04427
           X            0.00091   1.00000  -0.00001
           Y            0.00000   0.00001   1.00000
           Z            1.00000  -0.00091   0.00000
 This molecule is an asymmetric top.
 Rotational symmetry number  1.
 Rotational temperatures (Kelvin) 686553.65216     0.06586     0.06586
 Rotational constants (GHZ):      ************     1.37238     1.37238
 Zero-point vibrational energy      67798.1 (Joules/Mol)
                                   16.20412 (Kcal/Mol)
 Warning -- explicit consideration of   7 degrees of freedom as
           vibrations may cause significant error
 Vibrational temperatures:    100.49   267.41   267.42   801.09   801.31
          (Kelvin)            848.43   848.51   965.87  1904.61  2832.15
                             3258.35  3412.83

 Zero-point correction=                           0.025823 (Hartree/Particle)
 Thermal correction to Energy=                    0.031454
 Thermal correction to Enthalpy=                  0.032398
 Thermal correction to Gibbs Free Energy=         0.002411
 Sum of electronic and zero-point Energies=           -265.498269
 Sum of electronic and thermal Energies=              -265.492638
 Sum of electronic and thermal Enthalpies=            -265.491693
 Sum of electronic and thermal Free Energies=         -265.521681

                     E (Thermal)             CV                S
                      KCal/Mol        Cal/Mol-Kelvin    Cal/Mol-Kelvin
 Total                   19.738             17.048             63.113
 Electronic               0.000              0.000              0.000
 Translational            0.889              2.981             38.900
 Rotational               0.889              2.981             13.154
 Vibrational             17.960             11.086             11.060
 Vibration     1          0.598              1.968              4.158
 Vibration     2          0.632              1.859              2.269
 Vibration     3          0.632              1.859              2.269
 Vibration     4          0.912              1.125              0.530
 Vibration     5          0.912              1.125              0.530
 Vibration     6          0.947              1.054              0.468
 Vibration     7          0.947              1.054              0.468

 Optimization completed.
    -- Stationary point found.
 Normal termination of Gaussian 16 at Mon Oct 12 17:22:43 2020.
 Gaussian 16:  ES64L-G16RevB.01 20-Dec-2017

 ------------------------------------------------
 #P UCCSD(T)/aug-cc-pvtz geom=allcheck guess=read
 ------------------------------------------------

 Structure from the checkpoint file:  "input.chk"
 -----
 Title
 -----
 Charge =  0 Multiplicity = 1

                         Standard orientation:
 ---------------------------------------------------------------------
 Center     Atomic      Atomic             Coordinates (Angstroms)
 Number     Number       Type             X           Y           Z
 ---------------------------------------------------------------------
      1          6           0        3.330747   -0.000898    0.000000
      2          6           0        2.059834    0.000140    0.000000
      3          6           0        0.767322    0.000653    0.000000
      4          6           0       -0.488143    0.000992    0.000000
      5          6           0       -1.775106    0.000081    0.000000
      6          8           0       -2.920990   -0.000726    0.000000
 ---------------------------------------------------------------------

 SCF Done:  E(UHF) =  -264.070234726     A.U. after   12 cycles
 E2 =    -0.9692529303D+00 EUMP2 =    -0.26503948765587D+03
 CCSD(T)
 CCSD(T)= -0.26508780119D+03

 The electronic state is 1-A.
 Alpha  occ. eigenvalues --  -20.69362 -11.46241 -11.40001 -11.31172 -11.28808
 Alpha  occ. eigenvalues --  -11.23627  -1.54512  -1.16515  -1.07961  -0.97589
 Alpha  occ. eigenvalues --   -0.86407  -0.79346  -0.69585  -0.69585  -0.53545
 Alpha  occ. eigenvalues --   -0.53545  -0.47286  -0.38166  -0.38166
 Alpha virt. eigenvalues --   -0.01555  -0.01555   0.03907   0.05425   0.06242
 Alpha virt. eigenvalues --    0.06242   0.07092   0.09307   0.09307   0.09939
 Alpha virt. eigenvalues --    0.11599   0.11599   0.13939   0.16599   0.16823

  Beta  occ. eigenvalues --  -20.69362 -11.46241 -11.40001 -11.31172 -11.28808
  Beta  occ. eigenvalues --  -11.23627  -1.54512  -1.16515  -1.07961  -0.97589
  Beta  occ. eigenvalues --   -0.86407  -0.79346  -0.69585  -0.69585  -0.53545
  Beta  occ. eigenvalues --   -0.53545  -0.47286  -0.38166  -0.38166
  Beta virt. eigenvalues --   -0.01555  -0.01555   0.03907   0.05425   0.06242
  Beta virt. eigenvalues --    0.06242   0.07092   0.09307   0.09307   0.09939
  Beta virt. eigenvalues --    0.11599   0.11599   0.13939   0.16599   0.16823

 Mulliken charges and spin densities:
               1          2
     1  C   -1.031248   0.000000
     2  C    0.108977   0.000000
     3  C    0.482416   0.000000
     4  C    1.009803   0.000000
     5  C   -0.198268   0.000000
     6  O   -0.371680   0.000000
 Sum of Mulliken charges =  -0.00000   0.00000

 Dipole moment (field-independent basis, Debye):
    X=             -3.3966    Y=              0.0015    Z=             -0.0000  Tot=              3.3966
 Quadrupole moment (field-independent basis, Debye-Ang):
   XX=            -49.5081   YY=            -33.0153   ZZ=            -33.0152
   XY=              0.0030   XZ=             -0.0000   YZ=             -0.0000

 3-0=-265.0129536\MP4SDQ=-265.02326\CCSD=-265.0190439\CCSD(T)=-265.0878
 Normal termination of Gaussian 16 at Mon Oct 12 18:05:09 2020.
