 Gaussian 16, Revision B.01,

 --------------------------------------------------------
 #P M062X/cc-pvtz nosymm opt(noeigentest) optcyc=120 freq
 --------------------------------------------------------

 -----
 Title
 -----
 Symbolic Z-matrix:
 Charge =  0 Multiplicity = 1

 SCF Done:  E(RM062X) =  -271.409032065     A.U. after   14 cycles
 SCF Done:  E(RM062X) =  -271.409034023     A.U. after    8 cycles
 SCF Done:  E(RM062X) =  -271.409030536     A.U. after   10 cycles
 SCF Done:  E(RM062X) =  -271.409034253     A.U. after   11 cycles
 Optimization completed.
    -- Stationary point found.
 Normal termination of Gaussian 16 at Tue Sep 29 10:28:15 2020.

 -------------------------------------------------------------------
 #P Geom=AllCheck Guess=TCheck SCRF=Check GenChk RM062X/CC-pVTZ Freq
 -------------------------------------------------------------------

 Structure from the checkpoint file:  "input.chk"
 -----
 Title
 -----
 Charge =  0 Multiplicity = 1

 SCF Done:  E(RM062X) =  -271.409034253     A.U. after    1 cycles

  Exact polarizability:  60.649   0.006  53.023  18.617   0.007 142.001
 Approx polarizability:  76.215   0.006  66.917  28.084   0.014 162.768

                      1                      2                      3
                      A                      A                      A
 Frequencies --     75.5591                78.8275               166.4711
 Red. masses --      2.2342                 4.0885                 3.3568
 Frc consts  --      0.0075                 0.0150                 0.0548
 IR Inten    --      0.2905                 1.0432                 5.9421

                      4                      5                      6
                      A                      A                      A
 Frequencies --    219.4922               240.8535               327.6491
 Red. masses --      4.2751                 1.0885                 3.0395
 Frc consts  --      0.1213                 0.0372                 0.1923
 IR Inten    --      3.9847                 0.0005                 0.0491

                      7                      8                      9
                      A                      A                      A
 Frequencies --    362.5254               460.5740               545.7309
 Red. masses --      3.7249                 5.8251                 7.3094
 Frc consts  --      0.2884                 0.7280                 1.2826
 IR Inten    --      0.0554                 0.1065                 1.6538

                     10                     11                     12
                      A                      A                      A
 Frequencies --    564.6874               702.7612               705.0649
 Red. masses --      7.9883                 1.2993                 1.3004
 Frc consts  --      1.5008                 0.3781                 0.3809
 IR Inten    --      2.0597                44.9279                43.8549

                     13                     14                     15
                      A                      A                      A
 Frequencies --    739.8540               744.1068               874.3515
 Red. masses --      4.4376                 1.1091                 1.2363
 Frc consts  --      1.4312                 0.3618                 0.5568
 IR Inten    --      0.4752                 2.4640                 0.4135

                     16                     17                     18
                      A                      A                      A
 Frequencies --    906.6210              1062.4246              1119.3451
 Red. masses --      1.8660                 2.7104                 2.1747
 Frc consts  --      0.9037                 1.8026                 1.6054
 IR Inten    --      2.6394                 1.4162                 5.5607

                     19                     20                     21
                      A                      A                      A
 Frequencies --   1124.7170              1175.2008              1260.8620
 Red. masses --      1.4600                 3.4756                 1.2904
 Frc consts  --      1.0882                 2.8282                 1.2087
 IR Inten    --      0.1141                 3.0767                 0.0562

                     22                     23                     24
                      A                      A                      A
 Frequencies --   1306.5091              1325.7709              1386.8474
 Red. masses --      1.4731                 1.0795                 1.5607
 Frc consts  --      1.4815                 1.1180                 1.7686
 IR Inten    --     10.5752                 0.0302                 2.0363

                     25                     26                     27
                      A                      A                      A
 Frequencies --   1416.9761              1473.6336              1497.7548
 Red. masses --      1.2715                 1.0877                 1.0491
 Frc consts  --      1.5041                 1.3917                 1.3866
 IR Inten    --      1.8918                 2.9866                 1.0578

                     28                     29                     30
                      A                      A                      A
 Frequencies --   1503.9293              1512.0818              2215.2158
 Red. masses --      1.0387                 1.0852                 6.4513
 Frc consts  --      1.3842                 1.4619                18.6522
 IR Inten    --      7.9676                 7.3604                 2.2565

                     31                     32                     33
                      A                      A                      A
 Frequencies --   2404.8631              3053.7160              3060.3901
 Red. masses --     10.5451                 1.0583                 1.0367
 Frc consts  --     35.9320                 5.8144                 5.7207
 IR Inten    --     42.0275                 8.7454                20.8380

                     34                     35                     36
                      A                      A                      A
 Frequencies --   3079.4420              3085.9587              3112.2536
 Red. masses --      1.0595                 1.1019                 1.1038
 Frc consts  --      5.9197                 6.1825                 6.2991
 IR Inten    --     19.2028                 1.3293                 0.0705

                     37                     38                     39
                      A                      A                      A
 Frequencies --   3134.9143              3140.7018              3488.7536
 Red. masses --      1.1045                 1.1012                 1.1624
 Frc consts  --      6.3953                 6.3999                 8.3356
 IR Inten    --     38.9576                22.0541               116.4865

 - Thermochemistry -
 -------------------
 Temperature   298.150 Kelvin.  Pressure   1.00000 Atm.
 Atom     1 has atomic number  6 and mass  12.00000

 Molecular mass:    92.06260 amu.
 Principal axes and moments of inertia in atomic units:
                           1         2         3
     Eigenvalues --    99.161492156.459472222.36623
           X            0.09003   0.99594  -0.00124
           Y           -0.00001   0.00125   1.00000
           Z            0.99594  -0.09003   0.00012
 This molecule is an asymmetric top.
 Rotational symmetry number  1.
 Rotational temperatures (Kelvin)      0.87346     0.04016     0.03897
 Rotational constants (GHZ):          18.20002     0.83690     0.81208
 Zero-point vibrational energy     326923.8 (Joules/Mol)
                                   78.13666 (Kcal/Mol)
 Warning -- explicit consideration of  10 degrees of freedom as
           vibrations may cause significant error
 Vibrational temperatures:    108.71   113.42   239.51   315.80   346.53
          (Kelvin)            471.41   521.59   662.66   785.19   812.46
                             1011.12  1014.43  1064.48  1070.60  1258.00
                             1304.43  1528.59  1610.49  1618.22  1690.85
                             1814.10  1879.78  1907.49  1995.36  2038.71
                             2120.23  2154.94  2163.82  2175.55  3187.20
                             3460.06  4393.62  4403.22  4430.63  4440.01
                             4477.84  4510.44  4518.77  5019.54

 Zero-point correction=                           0.124519 (Hartree/Particle)
 Thermal correction to Energy=                    0.132608
 Thermal correction to Enthalpy=                  0.133552
 Thermal correction to Gibbs Free Energy=         0.092067
 Sum of electronic and zero-point Energies=           -271.284516
 Sum of electronic and thermal Energies=              -271.276427
 Sum of electronic and thermal Enthalpies=            -271.275482
 Sum of electronic and thermal Free Energies=         -271.316967

                     E (Thermal)             CV                S
                      KCal/Mol        Cal/Mol-Kelvin    Cal/Mol-Kelvin
 Total                   83.213             28.330             87.312
 Electronic               0.000              0.000              0.000
 Translational            0.889              2.981             39.471
 Rotational               0.889              2.981             27.654
 Vibrational             81.435             22.369             20.186
 Vibration     1          0.599              1.965              4.003
 Vibration     2          0.600              1.963              3.920
 Vibration     3          0.624              1.884              2.475
 Vibration     4          0.647              1.811              1.963
 Vibration     5          0.658              1.778              1.797
 Vibration     6          0.711              1.620              1.272
 Vibration     7          0.736              1.549              1.111
 Vibration     8          0.818              1.337              0.764
 Vibration     9          0.901              1.149              0.553
 Vibration    10          0.921              1.108              0.515

 Optimization completed.
    -- Stationary point found.
 Normal termination of Gaussian 16 at Tue Sep 29 10:38:04 2020.
 Gaussian 16:  ES64L-G16RevB.01 20-Dec-2017

 -----------------------------------------------
 #P CCSD(T)/aug-cc-pvtz geom=allcheck guess=read
 -----------------------------------------------

 Structure from the checkpoint file:  "input.chk"
 -----
 Title
 -----
 Charge =  0 Multiplicity = 1

                         Standard orientation:
 ---------------------------------------------------------------------
 Center     Atomic      Atomic             Coordinates (Angstroms)
 Number     Number       Type             X           Y           Z
 ---------------------------------------------------------------------
      1          6           0        3.452566   -0.251213   -0.000021
      2          6           0       -1.486610    0.195031    0.000083
      3          6           0       -2.832620   -0.085663    0.000060
      4          6           0       -4.007638   -0.332036   -0.000064
      5          1           0       -5.047494   -0.549490   -0.000289
      6          1           0        3.728581    0.329474    0.881183
      7          1           0        3.728626    0.329524   -0.881179
      8          6           0       -0.310172    0.447382    0.000102
      9          1           0        4.047892   -1.162896   -0.000034
     10          6           0        1.963578   -0.565939   -0.000056
     11          6           0        1.121184    0.715227   -0.000128
     12          1           0        1.699904   -1.160816   -0.875063
     13          1           0        1.699943   -1.160706    0.875001
     14          1           0        1.370652    1.318428    0.876523
     15          1           0        1.370164    1.319753   -0.875996
 ---------------------------------------------------------------------

 SCF Done:  E(RHF) =  -269.710223412     A.U. after   13 cycles
 E2 =    -0.1136015184D+01 EUMP2 =    -0.27084623859666D+03
 CCSD(T)
 CCSD(T)= -0.27094182998D+03

 The electronic state is 1-A.
 Alpha  occ. eigenvalues --  -11.25741 -11.25459 -11.24954 -11.24185 -11.24134
 Alpha  occ. eigenvalues --  -11.23485 -11.22225  -1.10704  -1.06922  -1.01599
 Alpha  occ. eigenvalues --   -0.95268  -0.83673  -0.81143  -0.70655  -0.65698
 Alpha  occ. eigenvalues --   -0.65429  -0.58627  -0.56659  -0.52180  -0.50436
 Alpha  occ. eigenvalues --   -0.49278  -0.47141  -0.46933  -0.35138  -0.35120
 Alpha virt. eigenvalues --    0.02815   0.03050   0.03808   0.04004   0.04506
 Alpha virt. eigenvalues --    0.05964   0.06222   0.06541   0.07975   0.08449
 Alpha virt. eigenvalues --    0.08471   0.09412   0.10707   0.11635   0.12053

 Mulliken charges:
               1
     1  C   -0.979504
     2  C    2.144739
     3  C    0.706951
     4  C   -2.053812
     5  H    0.285936
     6  H    0.288267
     7  H    0.288219
     8  C   -0.953705
     9  H    0.283739
    10  C   -0.420807
    11  C   -0.573412
    12  H    0.263070
    13  H    0.262925
    14  H    0.228669
    15  H    0.228724
 Sum of Mulliken charges =  -0.00000

 Dipole moment (field-independent basis, Debye):
    X=              1.3906    Y=              0.0020    Z=             -0.0002  Tot=              1.3906
 Quadrupole moment (field-independent basis, Debye-Ang):
   XX=            -34.1739   YY=            -43.9451   ZZ=            -44.1853
   XY=              2.3071   XZ=              0.0024   YZ=             -0.0013

 2041\MP4SDQ=-270.883653\CCSD=-270.8822959\CCSD(T)=-270.94183\RMSD=3.22
 Normal termination of Gaussian 16 at Wed Sep 30 09:05:21 2020.
