   * xtb version 6.2.2 (9d81278992624c895f80dd42a50cac0aa55982e2) compiled by '@Darwin' on 04/03/2020
          program call               : xtb --input H2C2O1_1_S_2.input H2C2O1_1_S_2.xyz --ohess --molden --namespace H2C2O1_1_S_2 output.out
          number of atoms            :                     5
          number of electrons        :                    16
          charge                     :                     0
          spin                       :                   1.0

   ID    Z sym.   atoms
    1    6 C      1, 2
    2    8 O      3
    3    1 H      4, 5

          :  Hamiltonian                  GFN2-xTB          :
 * total energy  :    -9.0686187 Eh     change        0.2951772E-10 Eh
 * total energy  :    -9.1213727 Eh     change       -0.5275397E-01 Eh
 * total energy  :    -9.1334134 Eh     change       -0.1204072E-01 Eh
 * total energy  :    -9.1416856 Eh     change       -0.8272142E-02 Eh
 * total energy  :    -9.1463265 Eh     change       -0.4640965E-02 Eh
 * total energy  :    -9.1492763 Eh     change       -0.2949780E-02 Eh
 * total energy  :    -9.1518583 Eh     change       -0.2581949E-02 Eh
 * total energy  :    -9.1532334 Eh     change       -0.1375148E-02 Eh
 * total energy  :    -9.1556232 Eh     change       -0.2389732E-02 Eh
 * total energy  :    -9.1566088 Eh     change       -0.9856940E-03 Eh
 * total energy  :    -9.1571502 Eh     change       -0.5413528E-03 Eh
 * total energy  :    -9.1577024 Eh     change       -0.5521855E-03 Eh
 * total energy  :    -9.1578124 Eh     change       -0.1100028E-03 Eh
 * total energy  :    -9.1578506 Eh     change       -0.3820042E-04 Eh
 * total energy  :    -9.1578559 Eh     change       -0.5308000E-05 Eh
 * total energy  :    -9.1578591 Eh     change       -0.3249840E-05 Eh
 * total energy  :    -9.1578611 Eh     change       -0.1915857E-05 Eh
   *** GEOMETRY OPTIMIZATION CONVERGED AFTER 17 ITERATIONS ***

 final structure:
================
5
 xtb: 6.2.2 (9d81278992624c895f80dd42a50cac0aa55982e2)
C        -0.46360261198260    0.19016938738041    0.06563780637467
C         0.93011229280457    0.22576269583974    0.01851152352538
O        -0.99789814707417   -0.89269473098386   -0.18089806334537
H        -1.03169015833700    1.09100129675882    0.31251377531623
H         1.56307962458920   -0.61423864899511   -0.21576404187092

          :  Hamiltonian                  GFN2-xTB          :
         :: gradient norm              0.000903783937 Eh/a0 ::
         :: HOMO-LUMO gap              4.145964568459 eV    ::
         :: SCC energy                -9.255576632879 Eh    ::
         :: -> dispersion             -0.001409841708 Eh    ::
         :: repulsion energy           0.097715542638 Eh    ::

    * Orbital Energies and Occupations

         #    Occupation            Energy/Eh            Energy/eV
      -------------------------------------------------------------
         1        2.0000           -0.7346473             -19.9908
         2        2.0000           -0.6596233             -17.9493
         3        2.0000           -0.6101547             -16.6032
         4        2.0000           -0.5569315             -15.1549
         5        2.0000           -0.5562672             -15.1368
         6        2.0000           -0.5408451             -14.7171
         7        2.0000           -0.4418135             -12.0224
         8        1.0000           -0.4090342             -11.1304
         9        1.0000           -0.3905029             -10.6261 (HOMO)
        10                         -0.2381416              -6.4802 (LUMO)
        11                          0.0823408               2.2406
        12                          0.2177268               5.9246
        13                          0.3741160              10.1802
        14                          0.5033144              13.6959
      -------------------------------------------------------------
                  HL-Gap            0.1523614 Eh            4.1460 eV

     #   Z        covCN         q      C6AA      Î±(0)
     1   6 C      2.760     0.210    23.541     7.945
     2   6 C      1.915    -0.082    33.345     9.326
     3   8 O      0.865    -0.294    19.671     5.947
     4   1 H      0.924     0.053     2.285     2.364
     5   1 H      0.926     0.113     1.673     2.023

Wiberg/Mayer (AO) data.
largest (>0.10) Wiberg bond orders for each atom
          total WBO             WBO to atom ...

molecular dipole:
                 x           y           z       tot (Debye)
 q only:        0.456       0.515       0.109
   full:        0.442       0.484       0.102       1.686

 projected vibrational frequencies (cm-1)
eigval :       -0.00    -0.00    -0.00     0.00     0.00     0.00
eigval :      430.64   536.67   874.39   882.69  1229.76  1322.38
eigval :     1515.92  2918.16  3075.51

   temp. (K)  partition function   enthalpy   heat capacity  entropy
                                   cal/mol     cal/K/mol   cal/K/mol   J/K/mol
  10.00  VIB   1.00                    0.000      0.000     -0.001
         ROT   53.4                   29.809      2.981     10.884
         INT   53.4                   29.809      2.981     10.883
         TR   0.162E+25               49.681      4.968     20.259
         TOT                          79.4904     7.9490    31.1426   130.3008

       T/K    H(0)-H(T)+PV         H(T)/Eh          T*S/Eh         G(T)/Eh
   ------------------------------------------------------------------------
    298.15    0.440274E-02    0.335317E-01    0.284737E-01    0.505801E-02
    120.00    0.153555E-02    0.306645E-01    0.975004E-02    0.209145E-01
    100.00    0.127188E-02    0.304008E-01    0.788484E-02    0.225160E-01
     80.00    0.101442E-02    0.301434E-01    0.607821E-02    0.240652E-01
     60.00    0.760127E-03    0.298891E-01    0.433929E-02    0.255498E-01
     40.00    0.506704E-03    0.296357E-01    0.268741E-02    0.269483E-01
     20.00    0.253352E-03    0.293823E-01    0.116814E-02    0.282142E-01
     10.00    0.126676E-03    0.292556E-01    0.496290E-03    0.287594E-01 (used)
   ------------------------------------------------------------------------

         :::::::::::::::::::::::::::::::::::::::::::::::::::::
         ::                  THERMODYNAMIC                  ::
         :::::::::::::::::::::::::::::::::::::::::::::::::::::
         :: total free energy          -9.129101701478 Eh   ::
         ::.................................................::
         :: total energy               -9.157861059443 Eh   ::
         :: zero point energy           0.029128971563 Eh   ::
         :: G(RRHO) w/o ZPVE           -0.000369613598 Eh   ::
         :: G(RRHO) contrib.            0.028759357965 Eh   ::
         :::::::::::::::::::::::::::::::::::::::::::::::::::::

           -------------------------------------------------
          | TOTAL ENERGY               -9.157861059443 Eh   |
          | TOTAL ENTHALPY             -9.128605411864 Eh   |
          | TOTAL FREE ENERGY          -9.129101701478 Eh   |
          | GRADIENT NORM               0.000903891222 Eh/Î± |
          | HOMO-LUMO GAP               4.145963702765 eV   |
           -------------------------------------------------

 * finished run on 2020/05/12 at 11:45:13.538
