   * xtb version 6.2.2 (9d81278992624c895f80dd42a50cac0aa55982e2) compiled by '@Darwin' on 04/03/2020
          program call               : xtb --input H3C1O1_1_S_1.input H3C1O1_1_S_1.xyz --ohess --molden --namespace H3C1O1_1_S_1 output.out
          number of atoms            :                     5
          number of electrons        :                    13
          charge                     :                     0
          spin                       :                   0.5

   ID    Z sym.   atoms
    1    8 O      1
    2    6 C      2
    3    1 H      3-5

          :  Hamiltonian                  GFN2-xTB          :
 * total energy  :    -7.6190510 Eh     change       -0.3477760E-09 Eh
 * total energy  :    -7.6221223 Eh     change       -0.3071292E-02 Eh
 * total energy  :    -7.6230492 Eh     change       -0.9268586E-03 Eh
 * total energy  :    -7.6231396 Eh     change       -0.9039439E-04 Eh
 * total energy  :    -7.6231494 Eh     change       -0.9797580E-05 Eh
 * total energy  :    -7.6231494 Eh     change       -0.5219851E-07 Eh
   *** GEOMETRY OPTIMIZATION CONVERGED AFTER 6 ITERATIONS ***

 final structure:
================
5
 xtb: 6.2.2 (9d81278992624c895f80dd42a50cac0aa55982e2)
O         1.29854655674121   -0.07348729100343    0.02186064678791
C        -0.01276669119621    0.00071878284279   -0.00021304854306
H        -0.45365662706014   -0.11495464443242    1.01347317733160
H        -0.36814922243710    0.97662744397984   -0.39597850152897
H        -0.46397501604775   -0.78890429138678   -0.63914227404748

          :  Hamiltonian                  GFN2-xTB          :
         :: gradient norm              0.000071996291 Eh/a0 ::
         :: HOMO-LUMO gap             14.063278277105 eV    ::
         :: SCC energy                -7.682130216077 Eh    ::
         :: -> dispersion             -0.000845969120 Eh    ::
         :: repulsion energy           0.058980796903 Eh    ::

    * Orbital Energies and Occupations

         #    Occupation            Energy/Eh            Energy/eV
      -------------------------------------------------------------
         1        2.0000           -0.6988328             -19.0162
         2        2.0000           -0.6273539             -17.0712
         3        2.0000           -0.5519828             -15.0202
         4        2.0000           -0.5519827             -15.0202
         5        2.0000           -0.5320922             -14.4790
         6        1.5001           -0.4129452             -11.2368
         7        1.4999           -0.4129445             -11.2368 (HOMO)
         8                          0.1038714               2.8265 (LUMO)
         9                          0.1529154               4.1610
        10                          0.1529214               4.1612
        11                          0.2496782               6.7941
      -------------------------------------------------------------
                  HL-Gap            0.5168159 Eh           14.0633 eV

     #   Z        covCN         q      C6AA      Î±(0)
     1   8 O      0.855    -0.340    20.517     6.073
     2   6 C      3.619     0.078    19.720     6.404
     3   1 H      0.921     0.087     1.907     2.160
     4   1 H      0.921     0.087     1.907     2.160
     5   1 H      0.921     0.087     1.907     2.160

Wiberg/Mayer (AO) data.
largest (>0.10) Wiberg bond orders for each atom
          total WBO             WBO to atom ...

molecular dipole:
                 x           y           z       tot (Debye)
 q only:       -1.048       0.059      -0.018
   full:       -1.273       0.072      -0.021       3.242

 projected vibrational frequencies (cm-1)
eigval :       -0.00    -0.00    -0.00    -0.00     0.00     0.00
eigval :     -931.83  -931.11  1212.32  1212.43  1235.60  1355.59
eigval :     2695.37  2695.49  2758.21

   temp. (K)  partition function   enthalpy   heat capacity  entropy
                                   cal/mol     cal/K/mol   cal/K/mol   J/K/mol
  10.00  VIB   1.00                    0.000      0.000     -0.000
         ROT   4.81                   29.809      2.981      6.102
         INT   4.81                   29.809      2.981      6.102
         TR   0.103E+25               49.681      4.968     19.355
         TOT                          79.4904     7.9490    25.4570   106.5122

       T/K    H(0)-H(T)+PV         H(T)/Eh          T*S/Eh         G(T)/Eh
   ------------------------------------------------------------------------
    298.15    0.383226E-02    0.338244E-01    0.249786E-01    0.884572E-02
    120.00    0.152012E-02    0.315122E-01    0.864440E-02    0.228678E-01
    100.00    0.126676E-02    0.312589E-01    0.697277E-02    0.242861E-01
     80.00    0.101341E-02    0.310055E-01    0.535215E-02    0.256534E-01
     60.00    0.760056E-03    0.307522E-01    0.379552E-02    0.269566E-01
     40.00    0.506704E-03    0.304988E-01    0.232496E-02    0.281738E-01
     20.00    0.253352E-03    0.302455E-01    0.986924E-03    0.292585E-01
     10.00    0.126676E-03    0.301188E-01    0.405683E-03    0.297131E-01 (used)
   ------------------------------------------------------------------------

         :::::::::::::::::::::::::::::::::::::::::::::::::::::
         ::                  THERMODYNAMIC                  ::
         :::::::::::::::::::::::::::::::::::::::::::::::::::::
         :: total free energy          -7.593436311913 Eh   ::
         ::.................................................::
         :: total energy               -7.623149406171 Eh   ::
         :: zero point energy           0.029992101655 Eh   ::
         :: G(RRHO) w/o ZPVE           -0.000279007397 Eh   ::
         :: G(RRHO) contrib.            0.029713094258 Eh   ::
         :::::::::::::::::::::::::::::::::::::::::::::::::::::

           -------------------------------------------------
          | TOTAL ENERGY               -7.623149406171 Eh   |
          | TOTAL ENTHALPY             -7.593030628500 Eh   |
          | TOTAL FREE ENERGY          -7.593436311913 Eh   |
          | GRADIENT NORM               0.000071997134 Eh/Î± |
          | HOMO-LUMO GAP              14.063277814383 eV   |
           -------------------------------------------------

 * finished run on 2020/05/12 at 11:44:44.715
