   * xtb version 6.2.2 (9d81278992624c895f80dd42a50cac0aa55982e2) compiled by '@Darwin' on 04/03/2020
          program call               : xtb --input C4_3_S_2.input C4_3_S_2.xyz --ohess --molden --namespace C4_3_S_2 output.out
          number of atoms            :                     4
          number of electrons        :                    16
          charge                     :                     0
          spin                       :                   1.0

   ID    Z sym.   atoms
    1    6 C      1-4

          :  Hamiltonian                  GFN2-xTB          :
 * total energy  :    -8.0560710 Eh     change       -0.4560263E-09 Eh
 * total energy  :    -8.0796321 Eh     change       -0.2356117E-01 Eh
 * total energy  :    -8.0812470 Eh     change       -0.1614902E-02 Eh
 * total energy  :    -8.1128789 Eh     change       -0.3163187E-01 Eh
 * total energy  :    -8.0176560 Eh     change        0.9522294E-01 Eh
 * total energy  :    -8.1100020 Eh     change       -0.9234598E-01 Eh
 * total energy  :    -8.1204122 Eh     change       -0.1041022E-01 Eh
 * total energy  :    -8.1209855 Eh     change       -0.5733292E-03 Eh
 * total energy  :    -8.1216596 Eh     change       -0.6741338E-03 Eh
 * total energy  :    -8.1222724 Eh     change       -0.6127044E-03 Eh
 * total energy  :    -8.1224733 Eh     change       -0.2009430E-03 Eh
 * total energy  :    -8.1224838 Eh     change       -0.1053063E-04 Eh
 * total energy  :    -8.1224840 Eh     change       -0.1683606E-06 Eh
   *** GEOMETRY OPTIMIZATION CONVERGED AFTER 13 ITERATIONS ***

 final structure:
================
4
 xtb: 6.2.2 (9d81278992624c895f80dd42a50cac0aa55982e2)
C        -0.81885608061566    0.48513150137407    0.19877833113524
C        -0.48700838216493   -0.81765812924598   -0.19912264202555
C         0.81952614342353   -0.48816319492215    0.18831973836037
C         0.48633831935705    0.82068982279406   -0.18797642747006

          :  Hamiltonian                  GFN2-xTB          :
         :: gradient norm              0.000137399537 Eh/a0 ::
         :: HOMO-LUMO gap              2.494886189218 eV    ::
         :: SCC energy                -8.248913799870 Eh    ::
         :: -> dispersion             -0.001705833731 Eh    ::
         :: repulsion energy           0.126429799930 Eh    ::

    * Orbital Energies and Occupations

         #    Occupation            Energy/Eh            Energy/eV
      -------------------------------------------------------------
         1        2.0000           -0.7393154             -20.1178
         2        2.0000           -0.6283288             -17.0977
         3        2.0000           -0.6283287             -17.0977
         4        2.0000           -0.5531117             -15.0509
         5        2.0000           -0.5337315             -14.5236
         6        2.0000           -0.4803264             -13.0703
         7        2.0000           -0.4635354             -12.6134
         8        1.0000           -0.4132274             -11.2445
         9        1.0000           -0.4132273             -11.2445 (HOMO)
        10                         -0.3215420              -8.7496 (LUMO)
        11                         -0.3215417              -8.7496
        12                         -0.2357571              -6.4153
        13                          0.1275637               3.4712
        14                          0.1771853               4.8215
        15                          0.1771869               4.8215
        16                          0.5712022              15.5432
      -------------------------------------------------------------
                  HL-Gap            0.0916853 Eh            2.4949 eV

     #   Z        covCN         q      C6AA      Î±(0)
     1   6 C      2.638    -0.000    28.014     8.658
     2   6 C      2.638     0.000    28.014     8.658
     3   6 C      2.638    -0.000    28.014     8.658
     4   6 C      2.638     0.000    28.014     8.658

Wiberg/Mayer (AO) data.
largest (>0.10) Wiberg bond orders for each atom
          total WBO             WBO to atom ...

molecular dipole:
                 x           y           z       tot (Debye)
 q only:       -0.000      -0.000      -0.000
   full:       -0.000      -0.000      -0.000       0.000

 projected vibrational frequencies (cm-1)
eigval :       -0.00    -0.00    -0.00     0.00     0.00     0.00
eigval :      559.55   635.47   914.79  1071.10  1071.11  1460.45

   temp. (K)  partition function   enthalpy   heat capacity  entropy
                                   cal/mol     cal/K/mol   cal/K/mol   J/K/mol
  10.00  VIB   1.00                    0.000      0.000     -0.000
         ROT   18.3                   29.809      2.981      8.757
         INT   18.3                   29.809      2.981      8.756
         TR   0.198E+25               49.681      4.968     20.657
         TOT                          79.4904     7.9490    29.4136   123.0667

       T/K    H(0)-H(T)+PV         H(T)/Eh          T*S/Eh         G(T)/Eh
   ------------------------------------------------------------------------
    298.15    0.421467E-02    0.172286E-01    0.273657E-01   -0.101370E-01
    120.00    0.152475E-02    0.145387E-01    0.940637E-02    0.513235E-02
    100.00    0.126789E-02    0.142819E-01    0.760461E-02    0.667726E-02
     80.00    0.101355E-02    0.140275E-01    0.585675E-02    0.817077E-02
     60.00    0.760061E-03    0.137740E-01    0.417386E-02    0.960017E-02
     40.00    0.506704E-03    0.135207E-01    0.257718E-02    0.109435E-01
     20.00    0.253352E-03    0.132673E-01    0.111303E-02    0.121543E-01
     10.00    0.126676E-03    0.131406E-01    0.468736E-03    0.126719E-01 (used)
   ------------------------------------------------------------------------

         :::::::::::::::::::::::::::::::::::::::::::::::::::::
         ::                  THERMODYNAMIC                  ::
         :::::::::::::::::::::::::::::::::::::::::::::::::::::
         :: total free energy          -8.109812081790 Eh   ::
         ::.................................................::
         :: total energy               -8.122483994543 Eh   ::
         :: zero point energy           0.013013972894 Eh   ::
         :: G(RRHO) w/o ZPVE           -0.000342060141 Eh   ::
         :: G(RRHO) contrib.            0.012671912753 Eh   ::
         :::::::::::::::::::::::::::::::::::::::::::::::::::::

           -------------------------------------------------
          | TOTAL ENERGY               -8.122483994543 Eh   |
          | TOTAL ENTHALPY             -8.109343345633 Eh   |
          | TOTAL FREE ENERGY          -8.109812081790 Eh   |
          | GRADIENT NORM               0.000137371950 Eh/Î± |
          | HOMO-LUMO GAP               2.494885058787 eV   |
           -------------------------------------------------

 * finished run on 2020/05/12 at 14:38:40.458
