   * xtb version 6.2.2 (9d81278992624c895f80dd42a50cac0aa55982e2) compiled by '@Darwin' on 04/03/2020
          program call               : xtb --input H2C1N2_12_S_0.input H2C1N2_12_S_0.xyz --ohess --molden --namespace H2C1N2_12_S_0 output.out
          number of atoms            :                     5
          number of electrons        :                    16
          charge                     :                     0
          spin                       :                   0.0

   ID    Z sym.   atoms
    1    7 N      1, 3
    2    6 C      2
    3    1 H      4, 5

          :  Hamiltonian                  GFN2-xTB          :
 * total energy  :    -8.8154191 Eh     change       -0.1658226E-08 Eh
 * total energy  :    -8.8219394 Eh     change       -0.6520292E-02 Eh
 * total energy  :    -8.8255298 Eh     change       -0.3590418E-02 Eh
 * total energy  :    -8.8261610 Eh     change       -0.6312315E-03 Eh
 * total energy  :    -8.8264050 Eh     change       -0.2439659E-03 Eh
 * total energy  :    -8.8264322 Eh     change       -0.2723428E-04 Eh
 * total energy  :    -8.8264349 Eh     change       -0.2691461E-05 Eh
   *** GEOMETRY OPTIMIZATION CONVERGED AFTER 7 ITERATIONS ***

 final structure:
================
5
 xtb: 6.2.2 (9d81278992624c895f80dd42a50cac0aa55982e2)
N         0.62433212799978   -0.03757447700371    0.40035505736255
C        -0.03033271048771    1.05767805871254   -0.07931371004410
N        -0.61946180348107   -0.13234017394745   -0.38762680046960
H         1.44903532218833   -0.40906357362121   -0.05160013000602
H        -1.42357293621933   -0.47869983414018    0.11818658315718

          :  Hamiltonian                  GFN2-xTB          :
         :: gradient norm              0.000583453522 Eh/a0 ::
         :: HOMO-LUMO gap              2.532247213150 eV    ::
         :: SCC energy                -8.910497925574 Eh    ::
         :: -> dispersion             -0.001425722979 Eh    ::
         :: repulsion energy           0.084062966607 Eh    ::

    * Orbital Energies and Occupations

         #    Occupation            Energy/Eh            Energy/eV
      -------------------------------------------------------------
         1        2.0000           -0.7223993             -19.6575
         2        2.0000           -0.6155249             -16.7493
         3        2.0000           -0.5950454             -16.1920
         4        2.0000           -0.5510081             -14.9937
         5        2.0000           -0.5377604             -14.6332
         6        2.0000           -0.4733000             -12.8791
         7        2.0000           -0.4220151             -11.4836
         8        2.0000           -0.3926997             -10.6859 (HOMO)
         9                         -0.2996413              -8.1537 (LUMO)
        10                         -0.1293955              -3.5210
        11                          0.0112500               0.3061
        12                          0.1088686               2.9625
        13                          0.1881962               5.1211
        14                          0.3811977              10.3729
      -------------------------------------------------------------
                  HL-Gap            0.0930584 Eh            2.5322 eV

     #   Z        covCN         q      C6AA      Î±(0)
     1   7 N      2.741    -0.144    24.114     7.293
     2   6 C      1.820    -0.045    32.403     9.197
     3   7 N      2.741    -0.144    24.114     7.293
     4   1 H      0.860     0.167     1.293     1.781
     5   1 H      0.860     0.167     1.293     1.781

Wiberg/Mayer (AO) data.
largest (>0.10) Wiberg bond orders for each atom
          total WBO             WBO to atom ...

molecular dipole:
                 x           y           z       tot (Debye)
 q only:        0.009      -0.324       0.024
   full:        0.024      -0.846       0.063       2.158
Molecule has the following symmetry elements: (C2)
It seems to be the C2 point group

 projected vibrational frequencies (cm-1)
eigval :       -0.00    -0.00     0.00     0.00     0.00     0.00
eigval :      390.50   793.43   873.90   993.79  1097.65  1153.41
eigval :     1532.64  3375.29  3380.85

   temp. (K)  partition function   enthalpy   heat capacity  entropy
                                   cal/mol     cal/K/mol   cal/K/mol   J/K/mol
  10.00  VIB   1.00                    0.000      0.000     -0.001
         ROT   20.6                   29.809      2.981      8.997
         INT   20.6                   29.809      2.981      8.997
         TR   0.162E+25               49.681      4.968     20.259
         TOT                          79.4904     7.9490    29.2562   122.4079

       T/K    H(0)-H(T)+PV         H(T)/Eh          T*S/Eh         G(T)/Eh
   ------------------------------------------------------------------------
    298.15    0.432284E-02    0.352865E-01    0.274726E-01    0.781390E-02
    120.00    0.153717E-02    0.325008E-01    0.939168E-02    0.231091E-01
    100.00    0.127330E-02    0.322369E-01    0.758601E-02    0.246509E-01
     80.00    0.101500E-02    0.319786E-01    0.583839E-02    0.261402E-01
     60.00    0.760209E-03    0.317238E-01    0.415901E-02    0.275648E-01
     40.00    0.506705E-03    0.314703E-01    0.256716E-02    0.289032E-01
     20.00    0.253352E-03    0.312170E-01    0.110802E-02    0.301090E-01
     10.00    0.126676E-03    0.310903E-01    0.466227E-03    0.306241E-01 (used)
   ------------------------------------------------------------------------

         :::::::::::::::::::::::::::::::::::::::::::::::::::::
         ::                  THERMODYNAMIC                  ::
         :::::::::::::::::::::::::::::::::::::::::::::::::::::
         :: total free energy          -8.795810856529 Eh   ::
         ::.................................................::
         :: total energy               -8.826434941162 Eh   ::
         :: zero point energy           0.030963635736 Eh   ::
         :: G(RRHO) w/o ZPVE           -0.000339551103 Eh   ::
         :: G(RRHO) contrib.            0.030624084633 Eh   ::
         :::::::::::::::::::::::::::::::::::::::::::::::::::::

           -------------------------------------------------
          | TOTAL ENERGY               -8.826434941162 Eh   |
          | TOTAL ENTHALPY             -8.795344629411 Eh   |
          | TOTAL FREE ENERGY          -8.795810856529 Eh   |
          | GRADIENT NORM               0.000583495442 Eh/Î± |
          | HOMO-LUMO GAP               2.532247325087 eV   |
           -------------------------------------------------

 * finished run on 2020/05/12 at 11:45:23.954
