   * xtb version 6.2.2 (9d81278992624c895f80dd42a50cac0aa55982e2) compiled by '@Darwin' on 04/03/2020
          program call               : xtb --input H2C2N1_10_S_3.input H2C2N1_10_S_3.xyz --ohess --molden --namespace H2C2N1_10_S_3 output.out
          number of atoms            :                     5
          number of electrons        :                    15
          charge                     :                     0
          spin                       :                   1.5

   ID    Z sym.   atoms
    1    6 C      1, 3
    2    7 N      2
    3    1 H      4, 5

          :  Hamiltonian                  GFN2-xTB          :
 * total energy  :    -7.8597465 Eh     change        0.9001866E-10 Eh
 * total energy  :    -7.8635225 Eh     change       -0.3775911E-02 Eh
 * total energy  :    -7.8648694 Eh     change       -0.1346961E-02 Eh
 * total energy  :    -7.8648980 Eh     change       -0.2853967E-04 Eh
 * total energy  :    -7.8649049 Eh     change       -0.6916275E-05 Eh
 * total energy  :    -7.8649054 Eh     change       -0.4865686E-06 Eh
   *** GEOMETRY OPTIMIZATION CONVERGED AFTER 6 ITERATIONS ***

 final structure:
================
5
 xtb: 6.2.2 (9d81278992624c895f80dd42a50cac0aa55982e2)
C        -0.24055334475152   -0.00399897179044   -0.06524706843268
N         0.95384109369089    0.06795279490890    0.75929071872109
C         1.02998863037036   -0.08293683821773   -0.68206965354324
H        -0.88196824522064   -0.88076307905419    0.08666205547329
H        -0.86130813408909    0.89974509415346   -0.09863505221845

          :  Hamiltonian                  GFN2-xTB          :
         :: gradient norm              0.000222373640 Eh/a0 ::
         :: HOMO-LUMO gap              5.922963273861 eV    ::
         :: SCC energy                -7.947735512369 Eh    ::
         :: -> dispersion             -0.001413375047 Eh    ::
         :: repulsion energy           0.082830128798 Eh    ::

    * Orbital Energies and Occupations

         #    Occupation            Energy/Eh            Energy/eV
      -------------------------------------------------------------
         1        2.0000           -0.6874546             -18.7066
         2        2.0000           -0.6017160             -16.3735
         3        2.0000           -0.5515175             -15.0076
         4        2.0000           -0.5515037             -15.0072
         5        2.0000           -0.4808545             -13.0847
         6        1.9945           -0.4259111             -11.5896
         7        1.0055           -0.4160323             -11.3208
         8        1.0000           -0.3989665             -10.8564
         9        1.0000           -0.2923387              -7.9549 (HOMO)
        10                         -0.0746737              -2.0320 (LUMO)
        11                          0.0766752               2.0864
        12                          0.1185507               3.2259
        13                          0.1913730               5.2075
        14                          0.3610196               9.8238
      -------------------------------------------------------------
                  HL-Gap            0.2176650 Eh            5.9230 eV

     #   Z        covCN         q      C6AA      Î±(0)
     1   6 C      3.734     0.040    19.990     6.381
     2   7 N      1.815    -0.205    26.285     7.596
     3   6 C      1.887    -0.045    32.341     9.185
     4   1 H      0.924     0.105     1.736     2.061
     5   1 H      0.924     0.105     1.736     2.061

Wiberg/Mayer (AO) data.
largest (>0.10) Wiberg bond orders for each atom
          total WBO             WBO to atom ...

molecular dipole:
                 x           y           z       tot (Debye)
 q only:       -0.824      -0.016      -0.243
   full:       -1.119      -0.031      -0.423       3.042

 projected vibrational frequencies (cm-1)
eigval :       -0.00    -0.00    -0.00     0.00     0.00     0.00
eigval :      479.66   731.33   890.13   944.59  1062.73  1279.33
eigval :     1453.73  2800.48  2859.68

   temp. (K)  partition function   enthalpy   heat capacity  entropy
                                   cal/mol     cal/K/mol   cal/K/mol   J/K/mol
  10.00  VIB   1.00                    0.000      0.000     -0.000
         ROT   43.3                   29.809      2.981     10.468
         INT   43.3                   29.809      2.981     10.468
         TR   0.151E+25               49.681      4.968     20.115
         TOT                          79.4904     7.9490    30.5823   127.9564

       T/K    H(0)-H(T)+PV         H(T)/Eh          T*S/Eh         G(T)/Eh
   ------------------------------------------------------------------------
    298.15    0.426578E-02    0.327466E-01    0.279960E-01    0.475063E-02
    120.00    0.152776E-02    0.300086E-01    0.963352E-02    0.203751E-01
    100.00    0.126907E-02    0.297499E-01    0.779223E-02    0.219577E-01
     80.00    0.101381E-02    0.294946E-01    0.600605E-02    0.234886E-01
     60.00    0.760078E-03    0.292409E-01    0.428564E-02    0.249553E-01
     40.00    0.506704E-03    0.289875E-01    0.265168E-02    0.263359E-01
     20.00    0.253352E-03    0.287342E-01    0.115028E-02    0.275839E-01
     10.00    0.126676E-03    0.286075E-01    0.487360E-03    0.281202E-01 (used)
   ------------------------------------------------------------------------

         :::::::::::::::::::::::::::::::::::::::::::::::::::::
         ::                  THERMODYNAMIC                  ::
         :::::::::::::::::::::::::::::::::::::::::::::::::::::
         :: total free energy          -7.836785202983 Eh   ::
         ::.................................................::
         :: total energy               -7.864905359418 Eh   ::
         :: zero point energy           0.028480840722 Eh   ::
         :: G(RRHO) w/o ZPVE           -0.000360684286 Eh   ::
         :: G(RRHO) contrib.            0.028120156435 Eh   ::
         :::::::::::::::::::::::::::::::::::::::::::::::::::::

           -------------------------------------------------
          | TOTAL ENERGY               -7.864905359418 Eh   |
          | TOTAL ENTHALPY             -7.836297842681 Eh   |
          | TOTAL FREE ENERGY          -7.836785202983 Eh   |
          | GRADIENT NORM               0.000222413794 Eh/Î± |
          | HOMO-LUMO GAP               5.922965971795 eV   |
           -------------------------------------------------

 * finished run on 2020/05/12 at 11:44:48.093
