   * xtb version 6.2.2 (9d81278992624c895f80dd42a50cac0aa55982e2) compiled by '@Darwin' on 04/03/2020
          program call               : xtb --input H2C2N1_3_S_3.input H2C2N1_3_S_3.xyz --ohess --molden --namespace H2C2N1_3_S_3 output.out
          number of atoms            :                     5
          number of electrons        :                    15
          charge                     :                     0
          spin                       :                   1.5

   ID    Z sym.   atoms
    1    6 C      1, 3
    2    7 N      2
    3    1 H      4, 5

          :  Hamiltonian                  GFN2-xTB          :
 * total energy  :    -7.8350560 Eh     change       -0.4996359E-10 Eh
 * total energy  :    -7.8490641 Eh     change       -0.1400814E-01 Eh
 * total energy  :    -7.8513338 Eh     change       -0.2269676E-02 Eh
 * total energy  :    -7.8518713 Eh     change       -0.5374635E-03 Eh
 * total energy  :    -7.8519825 Eh     change       -0.1112293E-03 Eh
 * total energy  :    -7.8520421 Eh     change       -0.5956735E-04 Eh
 * total energy  :    -7.8520483 Eh     change       -0.6224010E-05 Eh
 * total energy  :    -7.8520502 Eh     change       -0.1953185E-05 Eh
   *** GEOMETRY OPTIMIZATION CONVERGED AFTER 8 ITERATIONS ***

 final structure:
================
5
 xtb: 6.2.2 (9d81278992624c895f80dd42a50cac0aa55982e2)
C         0.73135457829930   -0.17865539700986    0.57690579728394
N        -0.58936027486363   -0.04934548478629    0.23446844743408
C         1.71795720168904    0.06023935070009   -0.39486111928855
H        -0.95066064661689   -0.72569741426085   -0.43530015602292
H        -0.90929085850782    0.89345894535691    0.01878703059345

          :  Hamiltonian                  GFN2-xTB          :
         :: gradient norm              0.000652249051 Eh/a0 ::
         :: HOMO-LUMO gap              1.245227972531 eV    ::
         :: SCC energy                -7.938116095775 Eh    ::
         :: -> dispersion             -0.001536469479 Eh    ::
         :: repulsion energy           0.086065822414 Eh    ::

    * Orbital Energies and Occupations

         #    Occupation            Energy/Eh            Energy/eV
      -------------------------------------------------------------
         1        2.0000           -0.6650411             -18.0967
         2        2.0000           -0.6188677             -16.8402
         3        2.0000           -0.5749936             -15.6464
         4        2.0000           -0.5694080             -15.4944
         5        2.0000           -0.4735090             -12.8848
         6        2.0000           -0.4415183             -12.0143
         7        1.0000           -0.4012725             -10.9192
         8        1.0000           -0.3510421              -9.5523
         9        1.0000           -0.2807793              -7.6404 (HOMO)
        10                         -0.2350180              -6.3952 (LUMO)
Molecule has the following symmetry elements: (sigma)
It seems to be the Cs point group
        11                          0.0239939               0.6529
        12                          0.1825049               4.9662
        13                          0.2441098               6.6426
        14                          0.3578731               9.7382
      -------------------------------------------------------------
                  HL-Gap            0.0457613 Eh            1.2452 eV

     #   Z        covCN         q      C6AA      Î±(0)
     1   6 C      1.890     0.022    30.539     8.925
     2   7 N      2.636    -0.208    25.530     7.504
     3   6 C      0.987    -0.199    42.658    10.973
     4   1 H      0.860     0.192     1.147     1.677
     5   1 H      0.860     0.192     1.145     1.677

Wiberg/Mayer (AO) data.
largest (>0.10) Wiberg bond orders for each atom
          total WBO             WBO to atom ...

molecular dipole:
                 x           y           z       tot (Debye)
 q only:       -1.061       0.050      -0.070
   full:       -1.396       0.124      -0.298       3.642

 projected vibrational frequencies (cm-1)
eigval :       -0.00    -0.00     0.00     0.00     0.00     0.00
eigval :     -566.98   455.93   688.59   802.52  1176.00  1256.16
eigval :     1368.72  3253.91  3293.07

   temp. (K)  partition function   enthalpy   heat capacity  entropy
                                   cal/mol     cal/K/mol   cal/K/mol   J/K/mol
  10.00  VIB   1.00                    0.000      0.000     -0.000
         ROT   52.1                   29.809      2.981     10.838
         INT   52.1                   29.809      2.981     10.838
         TR   0.151E+25               49.681      4.968     20.115
         TOT                          79.4904     7.9490    30.9523   129.5044

       T/K    H(0)-H(T)+PV         H(T)/Eh          T*S/Eh         G(T)/Eh
   ------------------------------------------------------------------------
    298.15    0.427094E-02    0.322808E-01    0.281914E-01    0.408938E-02
    120.00    0.152999E-02    0.295398E-01    0.970696E-02    0.198329E-01
    100.00    0.126990E-02    0.292797E-01    0.785217E-02    0.214276E-01
     80.00    0.101399E-02    0.290238E-01    0.605344E-02    0.229704E-01
     60.00    0.760093E-03    0.287699E-01    0.432103E-02    0.244489E-01
     40.00    0.506704E-03    0.285166E-01    0.267527E-02    0.258413E-01
     20.00    0.253352E-03    0.282632E-01    0.116207E-02    0.271011E-01
     10.00    0.126676E-03    0.281365E-01    0.493256E-03    0.276433E-01 (used)
   ------------------------------------------------------------------------

         :::::::::::::::::::::::::::::::::::::::::::::::::::::
         ::                  THERMODYNAMIC                  ::
         :::::::::::::::::::::::::::::::::::::::::::::::::::::
         :: total free energy          -7.824406974623 Eh   ::
         ::.................................................::
         :: total energy               -7.852050242200 Eh   ::
         :: zero point energy           0.028009847895 Eh   ::
         :: G(RRHO) w/o ZPVE           -0.000366580318 Eh   ::
         :: G(RRHO) contrib.            0.027643267577 Eh   ::
         :::::::::::::::::::::::::::::::::::::::::::::::::::::

           -------------------------------------------------
          | TOTAL ENERGY               -7.852050242200 Eh   |
          | TOTAL ENTHALPY             -7.823913718289 Eh   |
          | TOTAL FREE ENERGY          -7.824406974623 Eh   |
          | GRADIENT NORM               0.000652256955 Eh/Î± |
          | HOMO-LUMO GAP               1.245228505745 eV   |
           -------------------------------------------------

 * finished run on 2020/05/12 at 11:44:46.086
