   * xtb version 6.2.2 (9d81278992624c895f80dd42a50cac0aa55982e2) compiled by '@Darwin' on 04/03/2020
          program call               : xtb --input C3N1_8_S_3.input C3N1_8_S_3.xyz --ohess --molden --namespace C3N1_8_S_3 output.out
          number of atoms            :                     4
          number of electrons        :                    17
          charge                     :                     0
          spin                       :                   1.5

   ID    Z sym.   atoms
    1    6 C      1-3
    2    7 N      4

          :  Hamiltonian                  GFN2-xTB          :
 * total energy  :    -8.8713372 Eh     change        0.1743139E-09 Eh
 * total energy  :    -8.8947535 Eh     change       -0.2341634E-01 Eh
 * total energy  :    -8.9079042 Eh     change       -0.1315070E-01 Eh
 * total energy  :    -8.9121091 Eh     change       -0.4204912E-02 Eh
 * total energy  :    -8.9127604 Eh     change       -0.6513026E-03 Eh
 * total energy  :    -8.9128144 Eh     change       -0.5400181E-04 Eh
 * total energy  :    -8.9128315 Eh     change       -0.1706688E-04 Eh
 * total energy  :    -8.9128440 Eh     change       -0.1244402E-04 Eh
 * total energy  :    -8.9128567 Eh     change       -0.1276552E-04 Eh
 * total energy  :    -8.9128650 Eh     change       -0.8278844E-05 Eh
 * total energy  :    -8.9128725 Eh     change       -0.7536269E-05 Eh
 * total energy  :    -8.9128741 Eh     change       -0.1562990E-05 Eh
   *** GEOMETRY OPTIMIZATION CONVERGED AFTER 12 ITERATIONS ***

 final structure:
================
4
 xtb: 6.2.2 (9d81278992624c895f80dd42a50cac0aa55982e2)
C        -1.08556034790468    0.02041694349508    0.10116504091051
C        -0.00433553071782   -0.86204294876559    0.01221419595108
C         1.08556870031046    0.00660810509615   -0.10292846504861
N         0.00432717831203    0.83501790017435   -0.01045077181298

          :  Hamiltonian                  GFN2-xTB          :
         :: gradient norm              0.000230355769 Eh/a0 ::
         :: HOMO-LUMO gap              1.302597831557 eV    ::
         :: SCC energy                -9.020807431949 Eh    ::
         :: -> dispersion             -0.001751387711 Eh    ::
         :: repulsion energy           0.107933328068 Eh    ::

    * Orbital Energies and Occupations

         #    Occupation            Energy/Eh            Energy/eV
      -------------------------------------------------------------
         1        2.0000           -0.7569896             -20.5987
         2        2.0000           -0.6625440             -18.0287
         3        2.0000           -0.6313388             -17.1796
         4        2.0000           -0.5782219             -15.7342
         5        2.0000           -0.5576237             -15.1737
         6        2.0000           -0.5074953             -13.8096
         7        2.0000           -0.4867867             -13.2461
         8        1.0000           -0.4157818             -11.3140
         9        1.0000           -0.4070786             -11.0772
        10        1.0000           -0.3850687             -10.4783 (HOMO)
        11                         -0.3371991              -9.1757 (LUMO)
        12                         -0.2186159              -5.9488
        13                          0.0065790               0.1790
        14                          0.1454041               3.9566
        15                          0.2830762               7.7029
        16                          0.4487251              12.2104
      -------------------------------------------------------------
                  HL-Gap            0.0478696 Eh            1.3026 eV

     #   Z        covCN         q      C6AA      Î±(0)
     1   6 C      2.056    -0.018    31.443     9.057
     2   6 C      2.792     0.053    26.801     8.480
     3   6 C      2.056    -0.018    31.443     9.057
     4   7 N      2.651    -0.017    21.587     6.900

Wiberg/Mayer (AO) data.
largest (>0.10) Wiberg bond orders for each atom
          total WBO             WBO to atom ...

molecular dipole:
                 x           y           z       tot (Debye)
 q only:       -0.001      -0.114       0.002
   full:       -0.000      -0.055       0.000       0.140

 projected vibrational frequencies (cm-1)
eigval :       -0.00    -0.00     0.00     0.00     0.00     0.00
Molecule has the following symmetry elements: (C2) 2*(sigma)
It seems to be the C2v point group
eigval :      111.76   719.74   875.25  1162.08  1295.37  1426.93

   temp. (K)  partition function   enthalpy   heat capacity  entropy
                                   cal/mol     cal/K/mol   cal/K/mol   J/K/mol
  10.00  VIB   1.00                    0.000      0.000     -0.025
         ROT   37.2                   29.809      2.981     10.167
         INT   37.2                   29.809      2.981     10.143
         TR   0.210E+25               49.681      4.968     20.778
         TOT                          79.4904     7.9491    30.9211   129.3740

       T/K    H(0)-H(T)+PV         H(T)/Eh          T*S/Eh         G(T)/Eh
   ------------------------------------------------------------------------
    298.15    0.469101E-02    0.174285E-01    0.293030E-01   -0.118744E-01
    120.00    0.170146E-02    0.144390E-01    0.999290E-02    0.444608E-02
    100.00    0.139442E-02    0.141319E-01    0.804839E-02    0.608355E-02
     80.00    0.109220E-02    0.138297E-01    0.616972E-02    0.766002E-02
     60.00    0.797540E-03    0.135351E-01    0.437356E-02    0.916151E-02
     40.00    0.516013E-03    0.132535E-01    0.268781E-02    0.105657E-01
     20.00    0.253516E-03    0.129910E-01    0.116210E-02    0.118289E-01
     10.00    0.126676E-03    0.128642E-01    0.492760E-03    0.123714E-01 (used)
   ------------------------------------------------------------------------

         :::::::::::::::::::::::::::::::::::::::::::::::::::::
         ::                  THERMODYNAMIC                  ::
         :::::::::::::::::::::::::::::::::::::::::::::::::::::
         :: total free energy          -8.900502653952 Eh   ::
         ::.................................................::
         :: total energy               -8.912874099386 Eh   ::
         :: zero point energy           0.012737529092 Eh   ::
         :: G(RRHO) w/o ZPVE           -0.000366083659 Eh   ::
         :: G(RRHO) contrib.            0.012371445434 Eh   ::
         :::::::::::::::::::::::::::::::::::::::::::::::::::::

           -------------------------------------------------
          | TOTAL ENERGY               -8.912874099386 Eh   |
          | TOTAL ENTHALPY             -8.900009894225 Eh   |
          | TOTAL FREE ENERGY          -8.900502653952 Eh   |
          | GRADIENT NORM               0.000230352935 Eh/Î± |
          | HOMO-LUMO GAP               1.302597623072 eV   |
           -------------------------------------------------

 * finished run on 2020/05/12 at 11:45:06.475
