   * xtb version 6.2.2 (9d81278992624c895f80dd42a50cac0aa55982e2) compiled by '@Darwin' on 04/03/2020
          program call               : xtb --input C4N1_25_S_1.input C4N1_25_S_1.xyz --ohess --molden --namespace C4N1_25_S_1 output.out
          number of atoms            :                     5
          number of electrons        :                    21
          charge                     :                     0
          spin                       :                   0.5

   ID    Z sym.   atoms
    1    6 C      1, 3-5
    2    7 N      2

          :  Hamiltonian                  GFN2-xTB          :
 * total energy  :   -10.9230859 Eh     change        0.3157368E-09 Eh
 * total energy  :   -10.9510877 Eh     change       -0.2800184E-01 Eh
 * total energy  :   -10.9611158 Eh     change       -0.1002806E-01 Eh
 * total energy  :   -10.9699488 Eh     change       -0.8833060E-02 Eh
 * total energy  :   -10.9954638 Eh     change       -0.2551494E-01 Eh
 * total energy  :   -11.0163397 Eh     change       -0.2087598E-01 Eh
 * total energy  :   -11.0285833 Eh     change       -0.1224351E-01 Eh
 * total energy  :   -11.0303804 Eh     change       -0.1797109E-02 Eh
 * total energy  :   -11.0311356 Eh     change       -0.7552405E-03 Eh
 * total energy  :   -11.0324006 Eh     change       -0.1264982E-02 Eh
 * total energy  :   -11.0430022 Eh     change       -0.6454721E-03 Eh
 * total energy  :   -11.0431158 Eh     change       -0.1135595E-03 Eh
 * total energy  :   -11.0431986 Eh     change       -0.8281191E-04 Eh
 * total energy  :   -11.0432203 Eh     change       -0.2172016E-04 Eh
 * total energy  :   -11.0432410 Eh     change       -0.2061777E-04 Eh
 * total energy  :   -11.0432734 Eh     change       -0.3239949E-04 Eh
 * total energy  :   -11.0432770 Eh     change       -0.3652487E-05 Eh
 * total energy  :   -11.0433198 Eh     change       -0.4282426E-04 Eh
 * total energy  :   -11.0433238 Eh     change       -0.3948452E-05 Eh
   *** GEOMETRY OPTIMIZATION CONVERGED AFTER 24 ITERATIONS ***

 final structure:
================
5
 xtb: 6.2.2 (9d81278992624c895f80dd42a50cac0aa55982e2)
C         1.92195500212923   -0.27123817241245   -0.01885684866893
N         0.71935136772319   -0.09994194478659   -0.07185985380938
C        -1.63736037752875    0.22747850042810    0.16899498892901
C        -0.39348160262124    0.83921115192329   -0.02109909776247
C        -0.61046438970243   -0.69550953515234   -0.05717918868823

          :  Hamiltonian                  GFN2-xTB          :
         :: gradient norm              0.000991864405 Eh/a0 ::
         :: HOMO-LUMO gap              1.266487780995 eV    ::
         :: SCC energy               -11.202028356270 Eh    ::
         :: -> dispersion             -0.002876356571 Eh    ::
         :: repulsion energy           0.158704621234 Eh    ::

    * Orbital Energies and Occupations

         #    Occupation            Energy/Eh            Energy/eV
      -------------------------------------------------------------
         1        2.0000           -0.7665980             -20.8602
         2        2.0000           -0.7213721             -19.6295
         3        2.0000           -0.6665238             -18.1370
         4        2.0000           -0.6437695             -17.5179
         5        2.0000           -0.6066290             -16.5072
         6        2.0000           -0.5706422             -15.5280
         7        2.0000           -0.5009738             -13.6322
         8        2.0000           -0.4900854             -13.3359
         9        2.0000           -0.4701234             -12.7927
        10        2.0000           -0.4398831             -11.9698
        11        1.0000           -0.4071506             -11.0791 (HOMO)
        12                         -0.3606080              -9.8126 (LUMO)
        13                         -0.3197616              -8.7012
        14                         -0.2724302              -7.4132
        15                         -0.2290898              -6.2339
        16                         -0.0481450              -1.3101
        17                          0.0734085               1.9975
        18                          0.1706842               4.6446
        19                          0.3838664              10.4455
        20                          0.6861064              18.6699
      -------------------------------------------------------------
                  HL-Gap            0.0465426 Eh            1.2665 eV

     #   Z        covCN         q      C6AA      Î±(0)
     1   6 C      0.913    -0.123    39.379    10.503
Molecule has the following symmetry elements: (sigma)
It seems to be the Cs point group
     2   7 N      2.732     0.146    18.775     6.435
     3   6 C      1.967    -0.107    34.024     9.420
     4   6 C      2.861     0.042    27.051     8.525
     5   6 C      2.861     0.042    27.052     8.525

Wiberg/Mayer (AO) data.
largest (>0.10) Wiberg bond orders for each atom
          total WBO             WBO to atom ...

molecular dipole:
                 x           y           z       tot (Debye)
 q only:        0.001       0.001      -0.056
   full:        0.247      -0.032      -0.131       0.715

 projected vibrational frequencies (cm-1)
eigval :       -0.00    -0.00    -0.00     0.00     0.00     0.00
eigval :     -173.91   115.13   307.84   455.40   676.17   788.51
eigval :     1030.29  1460.94  1749.85

   temp. (K)  partition function   enthalpy   heat capacity  entropy
                                   cal/mol     cal/K/mol   cal/K/mol   J/K/mol
  10.00  VIB   1.00                    0.000      0.000     -0.024
         ROT   178.                   29.809      2.981     13.278
         INT   178.                   29.809      2.981     13.254
         TR   0.290E+25               49.681      4.968     21.419
         TOT                          79.4904     7.9491    34.6733   145.0732

       T/K    H(0)-H(T)+PV         H(T)/Eh          T*S/Eh         G(T)/Eh
   ------------------------------------------------------------------------
    298.15    0.539730E-02    0.203971E-01    0.321418E-01   -0.117448E-01
    120.00    0.174235E-02    0.167421E-01    0.107573E-01    0.598481E-02
    100.00    0.141059E-02    0.164104E-01    0.866292E-02    0.774743E-02
     80.00    0.109526E-02    0.160950E-01    0.664970E-02    0.944532E-02
     60.00    0.796387E-03    0.157962E-01    0.472997E-02    0.110662E-01
     40.00    0.515205E-03    0.155150E-01    0.292571E-02    0.125893E-01
     20.00    0.253485E-03    0.152532E-01    0.128158E-02    0.139717E-01
     10.00    0.126676E-03    0.151264E-01    0.552555E-03    0.145739E-01 (used)
   ------------------------------------------------------------------------

         :::::::::::::::::::::::::::::::::::::::::::::::::::::
         ::                  THERMODYNAMIC                  ::
         :::::::::::::::::::::::::::::::::::::::::::::::::::::
         :: total free energy         -11.028749894183 Eh   ::
         ::.................................................::
         :: total energy              -11.043323779161 Eh   ::
         :: zero point energy           0.014999763553 Eh   ::
         :: G(RRHO) w/o ZPVE           -0.000425878575 Eh   ::
         :: G(RRHO) contrib.            0.014573884978 Eh   ::
         :::::::::::::::::::::::::::::::::::::::::::::::::::::

           -------------------------------------------------
          | TOTAL ENERGY              -11.043323779161 Eh   |
          | TOTAL ENTHALPY            -11.028197339558 Eh   |
          | TOTAL FREE ENERGY         -11.028749894183 Eh   |
          | GRADIENT NORM               0.000991866855 Eh/Î± |
          | HOMO-LUMO GAP               1.266487765475 eV   |
           -------------------------------------------------

 * finished run on 2020/05/12 at 11:44:09.083
