   * xtb version 6.2.2 (9d81278992624c895f80dd42a50cac0aa55982e2) compiled by '@Darwin' on 04/03/2020
          program call               : xtb --input C5_4_S_0.input C5_4_S_0.xyz --ohess --molden --namespace C5_4_S_0 output.out
          number of atoms            :                     5
          number of electrons        :                    20
          charge                     :                     0
          spin                       :                   0.0

   ID    Z sym.   atoms
    1    6 C      1-5

          :  Hamiltonian                  GFN2-xTB          :
 * total energy  :   -10.0768362 Eh     change       -0.1237566E-08 Eh
 * total energy  :   -10.1695232 Eh     change       -0.9268702E-01 Eh
 * total energy  :   -10.1986589 Eh     change       -0.2913573E-01 Eh
 * total energy  :   -10.2236516 Eh     change       -0.2499268E-01 Eh
 * total energy  :   -10.2312376 Eh     change       -0.7585949E-02 Eh
 * total energy  :   -10.2355305 Eh     change       -0.4292899E-02 Eh
 * total energy  :   -10.2397019 Eh     change       -0.4171459E-02 Eh
 * total energy  :   -10.2409329 Eh     change       -0.1230990E-02 Eh
 * total energy  :   -10.2420172 Eh     change       -0.1084263E-02 Eh
 * total energy  :   -10.2425469 Eh     change       -0.5296869E-03 Eh
 * total energy  :   -10.2427818 Eh     change       -0.2348877E-03 Eh
 * total energy  :   -10.2425421 Eh     change        0.2396423E-03 Eh
 * total energy  :   -10.2428854 Eh     change       -0.3432347E-03 Eh
 * total energy  :   -10.2429147 Eh     change       -0.2937144E-04 Eh
 * total energy  :   -10.2429307 Eh     change       -0.1592859E-04 Eh
 * total energy  :   -10.2429606 Eh     change       -0.2997020E-04 Eh
 * total energy  :   -10.2429731 Eh     change       -0.1243425E-04 Eh
 * total energy  :   -10.2429757 Eh     change       -0.2636309E-05 Eh
   *** GEOMETRY OPTIMIZATION CONVERGED AFTER 18 ITERATIONS ***

 final structure:
================
5
 xtb: 6.2.2 (9d81278992624c895f80dd42a50cac0aa55982e2)
C        -1.95984155523151   -0.51176506432367   -0.08720671168608
C        -0.77647738959568   -0.05974413264732   -0.00817939411193
C         0.77729313967161   -0.04938225527587   -0.00819885912070
C        -0.00751773551258    1.10655535348670    0.19118711055579
C         1.96654254066816   -0.48566390123984   -0.08760214563709

          :  Hamiltonian                  GFN2-xTB          :
         :: gradient norm              0.000822884589 Eh/a0 ::
         :: HOMO-LUMO gap              1.610080757953 eV    ::
         :: SCC energy               -10.458036120417 Eh    ::
         :: -> dispersion             -0.003009366499 Eh    ::
         :: repulsion energy           0.215060406802 Eh    ::

    * Orbital Energies and Occupations

         #    Occupation            Energy/Eh            Energy/eV
      -------------------------------------------------------------
         1        2.0000           -0.7338706             -19.9696
         2        2.0000           -0.6940429             -18.8859
         3        2.0000           -0.6748262             -18.3630
         4        2.0000           -0.5858639             -15.9422
         5        2.0000           -0.5595967             -15.2274
         6        2.0000           -0.5578041             -15.1786
         7        2.0000           -0.4771592             -12.9842
         8        2.0000           -0.4743571             -12.9079
         9        2.0000           -0.4723142             -12.8523
        10        2.0000           -0.4610821             -12.5467 (HOMO)
        11                         -0.4019127             -10.9366 (LUMO)
        12                         -0.3969927             -10.8027
        13                         -0.3222231              -8.7681
        14                         -0.2364822              -6.4350
        15                         -0.2091305              -5.6907
        16                         -0.0641051              -1.7444
        17                          0.0905651               2.4644
        18                          0.2883343               7.8460
        19                          0.7445862              20.2612
        20                          0.8772245              23.8705
      -------------------------------------------------------------
                  HL-Gap            0.0591694 Eh            1.6101 eV

     #   Z        covCN         q      C6AA      Î±(0)
     1   6 C      0.983    -0.101    39.154    10.511
     2   6 C      2.933     0.121    25.348     8.257
     3   6 C      2.933     0.121    25.349     8.257
     4   6 C      1.963    -0.039    32.101     9.150
     5   6 C      0.983    -0.101    39.154    10.511

Wiberg/Mayer (AO) data.
largest (>0.10) Wiberg bond orders for each atom
          total WBO             WBO to atom ...

molecular dipole:
                 x           y           z       tot (Debye)
 q only:       -0.001       0.086       0.016
   full:        0.000      -0.099      -0.014       0.255

 projected vibrational frequencies (cm-1)
eigval :       -0.00    -0.00     0.00     0.00     0.00     0.00
eigval :      202.91   205.67   285.70   407.78   569.41   890.04
eigval :     1185.63  1691.60  1847.55

   temp. (K)  partition function   enthalpy   heat capacity  entropy
                                   cal/mol     cal/K/mol   cal/K/mol   J/K/mol
  10.00  VIB   1.00                    0.000      0.000     -0.011
         ROT   127.                   29.809      2.981     12.611
         INT   127.                   29.809      2.981     12.600
         TR   0.277E+25               49.681      4.968     21.322
         TOT                          79.4904     7.9490    33.9223   141.9309

       T/K    H(0)-H(T)+PV         H(T)/Eh          T*S/Eh         G(T)/Eh
   ------------------------------------------------------------------------
    298.15    0.587993E-02    0.224793E-01    0.324218E-01   -0.994252E-02
    120.00    0.175684E-02    0.183562E-01    0.105875E-01    0.776875E-02
    100.00    0.139847E-02    0.179979E-01    0.849670E-02    0.950116E-02
     80.00    0.107087E-02    0.176703E-01    0.650551E-02    0.111648E-01
     60.00    0.775533E-03    0.173749E-01    0.462484E-02    0.127501E-01
     40.00    0.507950E-03    0.171073E-01    0.286672E-02    0.142406E-01
     20.00    0.253353E-03    0.168527E-01    0.125691E-02    0.155958E-01
     10.00    0.126676E-03    0.167261E-01    0.540586E-03    0.161855E-01 (used)
   ------------------------------------------------------------------------

         :::::::::::::::::::::::::::::::::::::::::::::::::::::
         ::                  THERMODYNAMIC                  ::
         :::::::::::::::::::::::::::::::::::::::::::::::::::::
         :: total free energy         -10.226790210004 Eh   ::
         ::.................................................::
         :: total energy              -10.242975691258 Eh   ::
         :: zero point energy           0.016599391311 Eh   ::
         :: G(RRHO) w/o ZPVE           -0.000413910057 Eh   ::
         :: G(RRHO) contrib.            0.016185481254 Eh   ::
         :::::::::::::::::::::::::::::::::::::::::::::::::::::

           -------------------------------------------------
          | TOTAL ENERGY              -10.242975691258 Eh   |
          | TOTAL ENTHALPY            -10.226249623931 Eh   |
          | TOTAL FREE ENERGY         -10.226790210004 Eh   |
          | GRADIENT NORM               0.000822775570 Eh/Î± |
          | HOMO-LUMO GAP               1.610081592384 eV   |
           -------------------------------------------------

 * finished run on 2020/05/12 at 11:44:32.861
