   * xtb version 6.2.2 (9d81278992624c895f80dd42a50cac0aa55982e2) compiled by '@Darwin' on 04/03/2020
          program call               : xtb --input H2C1N2_10_S_0.input H2C1N2_10_S_0.xyz --ohess --molden --namespace H2C1N2_10_S_0 output.out
          number of atoms            :                     5
          number of electrons        :                    16
          charge                     :                     0
          spin                       :                   0.0

   ID    Z sym.   atoms
    1    7 N      1, 3
    2    6 C      2
    3    1 H      4, 5

          :  Hamiltonian                  GFN2-xTB          :
 * total energy  :    -8.7980815 Eh     change       -0.1456932E-09 Eh
 * total energy  :    -8.8222091 Eh     change       -0.2412764E-01 Eh
 * total energy  :    -8.8259623 Eh     change       -0.3753210E-02 Eh
 * total energy  :    -8.8276189 Eh     change       -0.1656545E-02 Eh
 * total energy  :    -8.8277252 Eh     change       -0.1063535E-03 Eh
 * total energy  :    -8.8277489 Eh     change       -0.2371806E-04 Eh
 * total energy  :    -8.8277505 Eh     change       -0.1596707E-05 Eh
   *** GEOMETRY OPTIMIZATION CONVERGED AFTER 7 ITERATIONS ***

 final structure:
================
5
 xtb: 6.2.2 (9d81278992624c895f80dd42a50cac0aa55982e2)
N        -0.31405990357364    0.00053057628020   -0.03594565195832
C         1.08489609973458   -0.10751224706156   -0.58699866398371
N         0.95012870672201    0.08104703043374    0.66495975561682
H        -0.84461520044879    0.86155017888385   -0.14710602033901
H        -0.87634870243415   -0.83561553853622    0.10509058066423

          :  Hamiltonian                  GFN2-xTB          :
         :: gradient norm              0.000286678187 Eh/a0 ::
         :: HOMO-LUMO gap              3.960950800134 eV    ::
         :: SCC energy                -8.916776907083 Eh    ::
         :: -> dispersion             -0.001444455728 Eh    ::
         :: repulsion energy           0.089026347269 Eh    ::

    * Orbital Energies and Occupations

         #    Occupation            Energy/Eh            Energy/eV
      -------------------------------------------------------------
         1        2.0000           -0.7159579             -19.4822
         2        2.0000           -0.6499336             -17.6856
         3        2.0000           -0.6061795             -16.4950
         4        2.0000           -0.5747360             -15.6394
         5        2.0000           -0.5224561             -14.2168
         6        2.0000           -0.4309670             -11.7272
         7        2.0000           -0.4277375             -11.6393
         8        2.0000           -0.3797131             -10.3325 (HOMO)
         9                         -0.2341508              -6.3716 (LUMO)
        10                         -0.1015027              -2.7620
        11                         -0.1012538              -2.7553
        12                          0.0918863               2.5004
        13                          0.1600492               4.3552
        14                          0.4680766              12.7370
      -------------------------------------------------------------
                  HL-Gap            0.1455622 Eh            3.9610 eV

     #   Z        covCN         q      C6AA      Î±(0)
     1   7 N      3.597     0.003    21.198     6.838
     2   6 C      1.813    -0.127    34.750     9.525
     3   7 N      1.885    -0.206    26.315     7.605
     4   1 H      0.860     0.165     1.304     1.789
     5   1 H      0.860     0.165     1.304     1.789

Wiberg/Mayer (AO) data.
largest (>0.10) Wiberg bond orders for each atom
Molecule has the following symmetry elements: (sigma)

molecular dipole:
                 x           y           z       tot (Debye)
 q only:       -1.168       0.002      -0.132
   full:       -1.750       0.038       0.034       4.449

 projected vibrational frequencies (cm-1)
eigval :       -0.00    -0.00     0.00     0.00     0.00     0.00
eigval :      788.82   824.49   858.17   999.29  1043.27  1471.43
eigval :     1708.56  3299.55  3306.49

   temp. (K)  partition function   enthalpy   heat capacity  entropy
                                   cal/mol     cal/K/mol   cal/K/mol   J/K/mol
  10.00  VIB   1.00                    0.000      0.000     -0.000
         ROT   41.5                   29.809      2.981     10.384
         INT   41.5                   29.809      2.981     10.384
         TR   0.162E+25               49.681      4.968     20.259
         TOT                          79.4904     7.9490    30.6437   128.2132

       T/K    H(0)-H(T)+PV         H(T)/Eh          T*S/Eh         G(T)/Eh
   ------------------------------------------------------------------------
    298.15    0.406902E-02    0.366470E-01    0.277396E-01    0.890740E-02
    120.00    0.152076E-02    0.340987E-01    0.963699E-02    0.244618E-01
    100.00    0.126685E-02    0.338448E-01    0.779943E-02    0.260454E-01
     80.00    0.101341E-02    0.335914E-01    0.601341E-02    0.275780E-01
     60.00    0.760056E-03    0.333380E-01    0.429146E-02    0.290466E-01
     40.00    0.506704E-03    0.330847E-01    0.265558E-02    0.304291E-01
     20.00    0.253352E-03    0.328313E-01    0.115223E-02    0.316791E-01
     10.00    0.126676E-03    0.327047E-01    0.488338E-03    0.322163E-01 (used)
   ------------------------------------------------------------------------

         :::::::::::::::::::::::::::::::::::::::::::::::::::::
         ::                  THERMODYNAMIC                  ::
         :::::::::::::::::::::::::::::::::::::::::::::::::::::
         :: total free energy          -8.795534228370 Eh   ::
         ::.................................................::
         :: total energy               -8.827750541177 Eh   ::
         :: zero point energy           0.032577975149 Eh   ::
         :: G(RRHO) w/o ZPVE           -0.000361662342 Eh   ::
         :: G(RRHO) contrib.            0.032216312807 Eh   ::
         :::::::::::::::::::::::::::::::::::::::::::::::::::::

           -------------------------------------------------
          | TOTAL ENERGY               -8.827750541177 Eh   |
          | TOTAL ENTHALPY             -8.795045890013 Eh   |
          | TOTAL FREE ENERGY          -8.795534228370 Eh   |
          | GRADIENT NORM               0.000286722266 Eh/Î± |
          | HOMO-LUMO GAP               3.960950369317 eV   |
           -------------------------------------------------

 * finished run on 2020/05/12 at 11:45:23.363
