   * xtb version 6.2.2 (9d81278992624c895f80dd42a50cac0aa55982e2) compiled by '@Darwin' on 04/03/2020
          program call               : xtb --input C5_5_S_2.input C5_5_S_2.xyz --ohess --molden --namespace C5_5_S_2 output.out
          number of atoms            :                     5
          number of electrons        :                    20
          charge                     :                     0
          spin                       :                   1.0

   ID    Z sym.   atoms
    1    6 C      1-5

          :  Hamiltonian                  GFN2-xTB          :
 * total energy  :   -10.0819816 Eh     change        0.3154703E-09 Eh
 * total energy  :   -10.1567671 Eh     change       -0.7478547E-01 Eh
 * total energy  :   -10.1791980 Eh     change       -0.2243091E-01 Eh
 * total energy  :   -10.1925320 Eh     change       -0.1333398E-01 Eh
 * total energy  :   -10.1956172 Eh     change       -0.3085192E-02 Eh
 * total energy  :   -10.1978863 Eh     change       -0.2269150E-02 Eh
 * total energy  :   -10.1986494 Eh     change       -0.7630927E-03 Eh
 * total energy  :   -10.1990976 Eh     change       -0.4481475E-03 Eh
 * total energy  :   -10.1991562 Eh     change       -0.5863343E-04 Eh
 * total energy  :   -10.1991649 Eh     change       -0.8743315E-05 Eh
 * total energy  :   -10.1991658 Eh     change       -0.8542354E-06 Eh
   *** GEOMETRY OPTIMIZATION CONVERGED AFTER 11 ITERATIONS ***

 final structure:
================
5
 xtb: 6.2.2 (9d81278992624c895f80dd42a50cac0aa55982e2)
C        -0.52796006254619    0.84499736258108    0.15732822936641
C         0.68083516542440   -0.00747119819427    0.03431557985907
C        -0.54390605637283   -0.84284949781714    0.10626691966333
C         1.94822865258761   -0.01670889615470   -0.05585915285640
C        -1.55719769909300    0.02203222958503   -0.24205257603241

          :  Hamiltonian                  GFN2-xTB          :
         :: gradient norm              0.000448651422 Eh/a0 ::
         :: HOMO-LUMO gap              1.137060495998 eV    ::
         :: SCC energy               -10.385172200741 Eh    ::
         :: -> dispersion             -0.002947988583 Eh    ::
         :: repulsion energy           0.186006413677 Eh    ::

    * Orbital Energies and Occupations

         #    Occupation            Energy/Eh            Energy/eV
      -------------------------------------------------------------
         1        2.0000           -0.7380857             -20.0843
         2        2.0000           -0.6789549             -18.4753
         3        2.0000           -0.6191615             -16.8482
         4        2.0000           -0.6159196             -16.7600
         5        2.0000           -0.5552854             -15.1101
         6        2.0000           -0.5456597             -14.8482
         7        2.0000           -0.4739147             -12.8959
         8        2.0000           -0.4627865             -12.5931
         9        2.0000           -0.4560274             -12.4091
        10        1.0000           -0.4205896             -11.4448
        11        1.0000           -0.4054135             -11.0319 (HOMO)
        12                         -0.3636273              -9.8948 (LUMO)
        13                         -0.3037727              -8.2661
        14                         -0.2623743              -7.1396
        15                         -0.1833021              -4.9879
        16                          0.0800019               2.1770
        17                          0.1386661               3.7733
        18                          0.1834379               4.9916
        19                          0.4236469              11.5280
        20                          0.8354846              22.7347
      -------------------------------------------------------------
                  HL-Gap            0.0417862 Eh            1.1371 eV

     #   Z        covCN         q      C6AA      Î±(0)
     1   6 C      2.891     0.004    27.927     8.664
     2   6 C      3.023     0.105    25.664     8.310
     3   6 C      2.891     0.004    27.927     8.664
     4   6 C      0.982    -0.107    39.332    10.534
     5   6 C      2.047    -0.006    31.147     9.014

Wiberg/Mayer (AO) data.
largest (>0.10) Wiberg bond orders for each atom
          total WBO             WBO to atom ...

molecular dipole:
                 x           y           z       tot (Debye)
 q only:       -0.249       0.002       0.023
   full:       -0.416       0.002       0.057       1.068

 projected vibrational frequencies (cm-1)
eigval :       -0.00    -0.00    -0.00     0.00     0.00     0.00
eigval :      223.66   301.08   441.13   540.47   555.51   937.46
eigval :      977.65  1486.84  1713.08

   temp. (K)  partition function   enthalpy   heat capacity  entropy
                                   cal/mol     cal/K/mol   cal/K/mol   J/K/mol
  10.00  VIB   1.00                    0.000      0.000     -0.005
         ROT   193.                   29.809      2.981     13.435
         INT   193.                   29.809      2.981     13.429
         TR   0.277E+25               49.681      4.968     21.322
         TOT                          79.4904     7.9490    34.7513   145.3996

       T/K    H(0)-H(T)+PV         H(T)/Eh          T*S/Eh         G(T)/Eh
   ------------------------------------------------------------------------
    298.15    0.546793E-02    0.218181E-01    0.319462E-01   -0.101281E-01
    120.00    0.165045E-02    0.180006E-01    0.105939E-01    0.740674E-02
    100.00    0.133296E-02    0.176831E-01    0.853918E-02    0.914392E-02
     80.00    0.103911E-02    0.173893E-01    0.656947E-02    0.108198E-01
     60.00    0.765919E-03    0.171161E-01    0.469170E-02    0.124244E-01
     40.00    0.507058E-03    0.168572E-01    0.291813E-02    0.139391E-01
     20.00    0.253352E-03    0.166035E-01    0.128323E-02    0.153203E-01
     10.00    0.126676E-03    0.164768E-01    0.553798E-03    0.159230E-01 (used)
   ------------------------------------------------------------------------

         :::::::::::::::::::::::::::::::::::::::::::::::::::::
         ::                  THERMODYNAMIC                  ::
         :::::::::::::::::::::::::::::::::::::::::::::::::::::
         :: total free energy         -10.183242768298 Eh   ::
         ::.................................................::
         :: total energy              -10.199165793452 Eh   ::
         :: zero point energy           0.016350147012 Eh   ::
         :: G(RRHO) w/o ZPVE           -0.000427121858 Eh   ::
         :: G(RRHO) contrib.            0.015923025154 Eh   ::
         :::::::::::::::::::::::::::::::::::::::::::::::::::::

           -------------------------------------------------
          | TOTAL ENERGY              -10.199165793452 Eh   |
          | TOTAL ENTHALPY            -10.182688970425 Eh   |
          | TOTAL FREE ENERGY         -10.183242768298 Eh   |
          | GRADIENT NORM               0.000448602174 Eh/Î± |
          | HOMO-LUMO GAP               1.137061439416 eV   |
           -------------------------------------------------

 * finished run on 2020/05/12 at 11:44:33.609
