   * xtb version 6.2.2 (9d81278992624c895f80dd42a50cac0aa55982e2) compiled by '@Darwin' on 04/03/2020
          program call               : xtb --input H2C1_0_S_0.input H2C1_0_S_0.xyz --ohess --molden --namespace H2C1_0_S_0 output.out
          number of atoms            :                     3
          number of electrons        :                     6
          charge                     :                     0
          spin                       :                   0.0

   ID    Z sym.   atoms
    1    6 C      1
    2    1 H      2, 3

          :  Hamiltonian                  GFN2-xTB          :
 * total energy  :    -2.9671626 Eh     change       -0.2219975E-09 Eh
 * total energy  :    -2.9674664 Eh     change       -0.3038278E-03 Eh
 * total energy  :    -2.9674811 Eh     change       -0.1468964E-04 Eh
 * total energy  :    -2.9674815 Eh     change       -0.3541486E-06 Eh
   *** GEOMETRY OPTIMIZATION CONVERGED AFTER 4 ITERATIONS ***

 final structure:
================
3
 xtb: 6.2.2 (9d81278992624c895f80dd42a50cac0aa55982e2)
C        -0.00041339589330    0.43900892723505   -0.00000000000000
H         0.88202664728615   -0.21867359657164    0.00000000000000
H        -0.88161325139285   -0.22033433066341    0.00000000000000

          :  Hamiltonian                  GFN2-xTB          :
         :: gradient norm              0.000096802515 Eh/a0 ::
         :: HOMO-LUMO gap              0.952306899676 eV    ::
         :: SCC energy                -2.998485226108 Eh    ::
         :: -> dispersion             -0.000265272922 Eh    ::
         :: repulsion energy           0.031003748621 Eh    ::

    * Orbital Energies and Occupations

         #    Occupation            Energy/Eh            Energy/eV
      -------------------------------------------------------------
         1        2.0000           -0.6020504             -16.3826
         2        2.0000           -0.4826349             -13.1332
         3        2.0000           -0.4027889             -10.9604 (HOMO)
         4                         -0.3677923             -10.0081 (LUMO)
         5                          0.1443745               3.9286
         6                          0.1653684               4.4999
      -------------------------------------------------------------
                  HL-Gap            0.0349966 Eh            0.9523 eV

     #   Z        covCN         q      C6AA      α(0)
     1   6 C      1.846    -0.144    35.239     9.589
     2   1 H      0.923     0.072     2.063     2.246
     3   1 H      0.923     0.072     2.063     2.246

Wiberg/Mayer (AO) data.
largest (>0.10) Wiberg bond orders for each atom
          total WBO             WBO to atom ...

molecular dipole:
                 x           y           z       tot (Debye)
 q only:        0.000      -0.180       0.000
   full:        0.001      -0.693       0.000       1.761

 projected vibrational frequencies (cm-1)
eigval :       -0.00    -0.00    -0.00    -0.00     0.00     0.00
eigval :     1358.31  2858.09  2921.60

   temp. (K)  partition function   enthalpy   heat capacity  entropy
                                   cal/mol     cal/K/mol   cal/K/mol   J/K/mol
  10.00  VIB   1.00                    0.000      0.000     -0.000
         ROT  0.387                   29.809      2.981      1.093
         INT  0.387                   29.809      2.981      1.093
         TR   0.312E+24               49.681      4.968     16.989
         TOT                          79.4904     7.9490    18.0822    75.6559

       T/K    H(0)-H(T)+PV         H(T)/Eh          T*S/Eh         G(T)/Eh
   ------------------------------------------------------------------------
    298.15    0.378569E-02    0.200473E-01    0.214202E-01   -0.137290E-02
    120.00    0.152011E-02    0.177817E-01    0.723408E-02    0.105476E-01
    100.00    0.126676E-02    0.175283E-01    0.579752E-02    0.117308E-01
     80.00    0.101341E-02    0.172750E-01    0.441195E-02    0.128630E-01
     60.00    0.760056E-03    0.170216E-01    0.309037E-02    0.139312E-01
     40.00    0.506704E-03    0.167683E-01    0.185486E-02    0.149134E-01
     20.00    0.253352E-03    0.165149E-01    0.751873E-03    0.157630E-01
     10.00    0.126676E-03    0.163882E-01    0.288158E-03    0.161001E-01 (used)
   ------------------------------------------------------------------------

         :::::::::::::::::::::::::::::::::::::::::::::::::::::
         ::                  THERMODYNAMIC                  ::
         :::::::::::::::::::::::::::::::::::::::::::::::::::::
         :: total free energy          -2.951381397063 Eh   ::
         ::.................................................::
         :: total energy               -2.967481477409 Eh   ::
         :: zero point energy           0.016261562536 Eh   ::
         :: G(RRHO) w/o ZPVE           -0.000161482190 Eh   ::
         :: G(RRHO) contrib.            0.016100080346 Eh   ::
         :::::::::::::::::::::::::::::::::::::::::::::::::::::

           -------------------------------------------------
          | TOTAL ENERGY               -2.967481477409 Eh   |
          | TOTAL ENTHALPY             -2.951093238857 Eh   |
          | TOTAL FREE ENERGY          -2.951381397063 Eh   |
          | GRADIENT NORM               0.000096803250 Eh/α |
          | HOMO-LUMO GAP               0.952306907265 eV   |
           -------------------------------------------------

 * finished run on 2020/05/12 at 11:44:27.789
