   * xtb version 6.2.2 (9d81278992624c895f80dd42a50cac0aa55982e2) compiled by '@Darwin' on 04/03/2020
          program call               : xtb --input H2C3_5_S_2.input H2C3_5_S_2.xyz --ohess --molden --namespace H2C3_5_S_2 output.out
          number of atoms            :                     5
          number of electrons        :                    14
          charge                     :                     0
          spin                       :                   1.0

   ID    Z sym.   atoms
    1    6 C      1-3
    2    1 H      4, 5

          :  Hamiltonian                  GFN2-xTB          :
 * total energy  :    -7.0752753 Eh     change        0.2098329E-08 Eh
 * total energy  :    -7.1157892 Eh     change       -0.4051389E-01 Eh
 * total energy  :    -7.1330350 Eh     change       -0.1724584E-01 Eh
 * total energy  :    -7.1396989 Eh     change       -0.6663931E-02 Eh
 * total energy  :    -7.1421615 Eh     change       -0.2462554E-02 Eh
 * total energy  :    -7.1433341 Eh     change       -0.1172628E-02 Eh
 * total energy  :    -7.1435799 Eh     change       -0.2457880E-03 Eh
 * total energy  :    -7.1436630 Eh     change       -0.8305787E-04 Eh
 * total energy  :    -7.1436736 Eh     change       -0.1065471E-04 Eh
 * total energy  :    -7.1436753 Eh     change       -0.1689200E-05 Eh
   *** GEOMETRY OPTIMIZATION CONVERGED AFTER 10 ITERATIONS ***

 final structure:
================
5
 xtb: 6.2.2 (9d81278992624c895f80dd42a50cac0aa55982e2)
C        -0.79989766631411    0.04095629996379    0.15084810763133
C         0.79025560060239    0.05414413475899    0.19193744299886
C        -0.00496221508599    1.09144892567723   -0.15806588334411
H        -1.59058341225250   -0.60654581102008   -0.13360145965817
H         1.60518769305021   -0.58000454937993   -0.05111920762792

          :  Hamiltonian                  GFN2-xTB          :
         :: gradient norm              0.000557300571 Eh/a0 ::
         :: HOMO-LUMO gap              2.053837426219 eV    ::
         :: SCC energy                -7.279579295515 Eh    ::
         :: -> dispersion             -0.001582361959 Eh    ::
         :: repulsion energy           0.135903965606 Eh    ::

    * Orbital Energies and Occupations

         #    Occupation            Energy/Eh            Energy/eV
      -------------------------------------------------------------
         1        2.0000           -0.6585695             -17.9206
         2        2.0000           -0.5691853             -15.4883
         3        2.0000           -0.5462342             -14.8638
         4        2.0000           -0.4847326             -13.1902
         5        2.0000           -0.4676219             -12.7246
         6        2.0000           -0.4597606             -12.5107
         7        1.0000           -0.3520707              -9.5803
         8        1.0000           -0.3005771              -8.1791 (HOMO)
         9                         -0.2251001              -6.1253 (LUMO)
        10                         -0.0799697              -2.1761
        11                          0.1101784               2.9981
        12                          0.1623028               4.4165
        13                          0.4844041              13.1813
        14                          0.6806841              18.5224
      -------------------------------------------------------------
                  HL-Gap            0.0754770 Eh            2.0538 eV

     #   Z        covCN         q      C6AA      Î±(0)
     1   6 C      2.874    -0.037    28.918     8.815
     2   6 C      2.874    -0.037    28.918     8.815
     3   6 C      1.961    -0.043    32.234     9.169
     4   1 H      0.927     0.059     2.214     2.327
     5   1 H      0.927     0.059     2.214     2.327

Wiberg/Mayer (AO) data.
largest (>0.10) Wiberg bond orders for each atom
          total WBO             WBO to atom ...

molecular dipole:
                 x           y           z       tot (Debye)
 q only:        0.003      -0.228      -0.032
   full:        0.010      -0.599      -0.186       1.593

 projected vibrational frequencies (cm-1)
eigval :       -0.00    -0.00    -0.00    -0.00     0.00     0.00
eigval :     -438.70   501.32   751.52   785.56   816.42  1128.41
eigval :     1683.28  3219.95  3230.02

   temp. (K)  partition function   enthalpy   heat capacity  entropy
                                   cal/mol     cal/K/mol   cal/K/mol   J/K/mol
  10.00  VIB   1.00                    0.000      0.000     -0.000
         ROT   40.6                   29.809      2.981     10.343
         INT   40.6                   29.809      2.981     10.343
         TR   0.139E+25               49.681      4.968     19.962
         TOT                          79.4904     7.9490    30.3048   126.7955

       T/K    H(0)-H(T)+PV         H(T)/Eh          T*S/Eh         G(T)/Eh
   ------------------------------------------------------------------------
    298.15    0.427462E-02    0.318780E-01    0.278732E-01    0.400480E-02
    120.00    0.152665E-02    0.291301E-01    0.957909E-02    0.195510E-01
    100.00    0.126859E-02    0.288720E-01    0.774745E-02    0.211246E-01
     80.00    0.101369E-02    0.286171E-01    0.597055E-02    0.226466E-01
     60.00    0.760070E-03    0.283635E-01    0.425909E-02    0.241044E-01
     40.00    0.506704E-03    0.281101E-01    0.263399E-02    0.254761E-01
     20.00    0.253352E-03    0.278568E-01    0.114144E-02    0.267153E-01
     10.00    0.126676E-03    0.277301E-01    0.482938E-03    0.272472E-01 (used)
   ------------------------------------------------------------------------

         :::::::::::::::::::::::::::::::::::::::::::::::::::::
         ::                  THERMODYNAMIC                  ::
         :::::::::::::::::::::::::::::::::::::::::::::::::::::
         :: total free energy          -7.116428131945 Eh   ::
         ::.................................................::
         :: total energy               -7.143675298214 Eh   ::
         :: zero point energy           0.027603428686 Eh   ::
         :: G(RRHO) w/o ZPVE           -0.000356262416 Eh   ::
         :: G(RRHO) contrib.            0.027247166270 Eh   ::
         :::::::::::::::::::::::::::::::::::::::::::::::::::::

           -------------------------------------------------
          | TOTAL ENERGY               -7.143675298214 Eh   |
          | TOTAL ENTHALPY             -7.115945193513 Eh   |
          | TOTAL FREE ENERGY          -7.116428131945 Eh   |
          | GRADIENT NORM               0.000557374635 Eh/Î± |
          | HOMO-LUMO GAP               2.053833117685 eV   |
           -------------------------------------------------

 * finished run on 2020/05/12 at 11:44:27.406
