   * xtb version 6.2.2 (9d81278992624c895f80dd42a50cac0aa55982e2) compiled by '@Darwin' on 04/03/2020
          program call               : xtb --input H3C1N1_1_S_2.input H3C1N1_1_S_2.xyz --ohess --molden --namespace H3C1N1_1_S_2 output.out
          number of atoms            :                     5
          number of electrons        :                    12
          charge                     :                     0
          spin                       :                   1.0

   ID    Z sym.   atoms
    1    6 C      1
    2    7 N      2
    3    1 H      3-5

          :  Hamiltonian                  GFN2-xTB          :
 * total energy  :    -6.3882151 Eh     change       -0.4161656E-08 Eh
 * total energy  :    -6.4021057 Eh     change       -0.1389061E-01 Eh
 * total energy  :    -6.4069007 Eh     change       -0.4795048E-02 Eh
 * total energy  :    -6.4079753 Eh     change       -0.1074533E-02 Eh
 * total energy  :    -6.4083642 Eh     change       -0.3889039E-03 Eh
 * total energy  :    -6.4086324 Eh     change       -0.2682388E-03 Eh
 * total energy  :    -6.4087607 Eh     change       -0.1282914E-03 Eh
 * total energy  :    -6.4089431 Eh     change       -0.1823511E-03 Eh
 * total energy  :    -6.4096412 Eh     change       -0.6981731E-03 Eh
 * total energy  :    -6.4101601 Eh     change       -0.5189068E-03 Eh
 * total energy  :    -6.4113108 Eh     change       -0.1150653E-02 Eh
 * total energy  :    -6.4115064 Eh     change       -0.1956276E-03 Eh
 * total energy  :    -6.4115795 Eh     change       -0.7308559E-04 Eh
 * total energy  :    -6.4115163 Eh     change        0.6319078E-04 Eh
 * total energy  :    -6.4115942 Eh     change       -0.7786238E-04 Eh
 * total energy  :    -6.4115931 Eh     change        0.1084449E-05 Eh
 * total energy  :    -6.4115964 Eh     change       -0.3262213E-05 Eh
   *** GEOMETRY OPTIMIZATION CONVERGED AFTER 17 ITERATIONS ***

 final structure:
================
5
 xtb: 6.2.2 (9d81278992624c895f80dd42a50cac0aa55982e2)
C        -0.41101645964601    0.07783417161709   -0.13657664128959
N         0.80793604088498   -0.17283533225284    0.33427240588662
H        -1.07765751689328   -0.78003997647894   -0.21671750497250
H        -0.92657662824842    0.93109183300385    0.30324910091396
H         1.60731556390273   -0.05604969588916   -0.28422736053849

          :  Hamiltonian                  GFN2-xTB          :
         :: gradient norm              0.000890787069 Eh/a0 ::
         :: HOMO-LUMO gap             10.412859266680 eV    ::
         :: SCC energy                -6.490200025496 Eh    ::
         :: -> dispersion             -0.000986527663 Eh    ::
         :: repulsion energy           0.078603651935 Eh    ::

    * Orbital Energies and Occupations

         #    Occupation            Energy/Eh            Energy/eV
      -------------------------------------------------------------
         1        2.0000           -0.6202339             -16.8774
         2        2.0000           -0.5624688             -15.3056
         3        2.0000           -0.4987887             -13.5727
         4        2.0000           -0.4961182             -13.5001
         5        2.0000           -0.4463322             -12.1453
         6        1.0000           -0.3696376             -10.0584
         7        1.0000           -0.2854293              -7.7669 (HOMO)
         8                          0.0972364               2.6459 (LUMO)
         9                          0.2016344               5.4868
        10                          0.2480783               6.7506
        11                          0.3567703               9.7082
      -------------------------------------------------------------
                  HL-Gap            0.3826657 Eh           10.4129 eV

     #   Z        covCN         q      C6AA      Î±(0)
     1   6 C      2.759    -0.084    30.084     8.982
     2   7 N      1.770    -0.236    26.981     7.691
     3   1 H      0.925     0.079     1.985     2.204
     4   1 H      0.925     0.079     1.986     2.204
     5   1 H      0.860     0.161     1.328     1.805

Wiberg/Mayer (AO) data.
largest (>0.10) Wiberg bond orders for each atom
          total WBO             WBO to atom ...

molecular dipole:
                 x           y           z       tot (Debye)
 q only:       -0.106       0.070      -0.201
   full:       -0.180       0.109      -0.308       0.949

 projected vibrational frequencies (cm-1)
eigval :       -0.00    -0.00    -0.00     0.00     0.00     0.00
eigval :      615.64   633.28   916.41  1059.58  1283.38  1422.52
eigval :     2890.55  2921.32  3246.55
Molecule has the following symmetry elements: (sigma)
It seems to be the Cs point group

   temp. (K)  partition function   enthalpy   heat capacity  entropy
                                   cal/mol     cal/K/mol   cal/K/mol   J/K/mol
  10.00  VIB   1.00                    0.000      0.000     -0.000
         ROT   12.5                   29.809      2.981      8.007
         INT   12.5                   29.809      2.981      8.006
         TR   0.930E+24               49.681      4.968     19.157
         TOT                          79.4904     7.9490    27.1637   113.6530

       T/K    H(0)-H(T)+PV         H(T)/Eh          T*S/Eh         G(T)/Eh
   ------------------------------------------------------------------------
    298.15    0.416968E-02    0.383177E-01    0.262331E-01    0.120846E-01
    120.00    0.152340E-02    0.356714E-01    0.897453E-02    0.266968E-01
    100.00    0.126749E-02    0.354155E-01    0.724559E-02    0.281699E-01
     80.00    0.101348E-02    0.351615E-01    0.556984E-02    0.295916E-01
     60.00    0.760058E-03    0.349080E-01    0.395873E-02    0.309493E-01
     40.00    0.506704E-03    0.346547E-01    0.243376E-02    0.322209E-01
     20.00    0.253352E-03    0.344013E-01    0.104132E-02    0.333600E-01
     10.00    0.126676E-03    0.342747E-01    0.432881E-03    0.338418E-01 (used)
   ------------------------------------------------------------------------

         :::::::::::::::::::::::::::::::::::::::::::::::::::::
         ::                  THERMODYNAMIC                  ::
         :::::::::::::::::::::::::::::::::::::::::::::::::::::
         :: total free energy          -6.377754587318 Eh   ::
         ::.................................................::
         :: total energy               -6.411596360654 Eh   ::
         :: zero point energy           0.034147978609 Eh   ::
         :: G(RRHO) w/o ZPVE           -0.000306205273 Eh   ::
         :: G(RRHO) contrib.            0.033841773336 Eh   ::
         :::::::::::::::::::::::::::::::::::::::::::::::::::::

           -------------------------------------------------
          | TOTAL ENERGY               -6.411596360654 Eh   |
          | TOTAL ENTHALPY             -6.377321706030 Eh   |
          | TOTAL FREE ENERGY          -6.377754587318 Eh   |
          | GRADIENT NORM               0.000890834803 Eh/Î± |
          | HOMO-LUMO GAP              10.412863428901 eV   |
           -------------------------------------------------

 * finished run on 2020/05/12 at 11:44:28.324
