   * xtb version 6.2.2 (9d81278992624c895f80dd42a50cac0aa55982e2) compiled by '@Darwin' on 04/03/2020
          program call               : xtb --input H1C4_4_S_3.input H1C4_4_S_3.xyz --ohess --molden --namespace H1C4_4_S_3 output.out
          number of atoms            :                     5
          number of electrons        :                    17
          charge                     :                     0
          spin                       :                   1.5

   ID    Z sym.   atoms
    1    6 C      1-4
    2    1 H      5

          :  Hamiltonian                  GFN2-xTB          :
 * total energy  :    -8.5379322 Eh     change       -0.8657697E-09 Eh
 * total energy  :    -8.6009381 Eh     change       -0.6300586E-01 Eh
 * total energy  :    -8.6207080 Eh     change       -0.1976991E-01 Eh
 * total energy  :    -8.6360902 Eh     change       -0.1538225E-01 Eh
 * total energy  :    -8.6399577 Eh     change       -0.3867464E-02 Eh
 * total energy  :    -8.6425328 Eh     change       -0.2575116E-02 Eh
 * total energy  :    -8.6446941 Eh     change       -0.2161254E-02 Eh
 * total energy  :    -8.6452149 Eh     change       -0.5208658E-03 Eh
 * total energy  :    -8.6454303 Eh     change       -0.2153972E-03 Eh
 * total energy  :    -8.6456168 Eh     change       -0.1864879E-03 Eh
 * total energy  :    -8.6456581 Eh     change       -0.4129223E-04 Eh
 * total energy  :    -8.6456653 Eh     change       -0.7240452E-05 Eh
 * total energy  :    -8.6456672 Eh     change       -0.1846490E-05 Eh
   *** GEOMETRY OPTIMIZATION CONVERGED AFTER 13 ITERATIONS ***

 final structure:
================
5
 xtb: 6.2.2 (9d81278992624c895f80dd42a50cac0aa55982e2)
C         1.11007363042978   -0.32594996437326    0.01986414219376
C        -0.17901373749686   -0.08972711672122    0.00429265922662
C        -1.39543873635053    0.73719150913821   -0.04037465929223
C        -1.51628796399438   -0.61365752071228    0.02490868812694
H         1.98066680741198    0.29214309266856   -0.00869083025508

          :  Hamiltonian                  GFN2-xTB          :
         :: gradient norm              0.000506035268 Eh/a0 ::
         :: HOMO-LUMO gap              2.071418150618 eV    ::
         :: SCC energy                -8.807275180296 Eh    ::
         :: -> dispersion             -0.002192598565 Eh    ::
         :: repulsion energy           0.161608004553 Eh    ::

    * Orbital Energies and Occupations

         #    Occupation            Energy/Eh            Energy/eV
      -------------------------------------------------------------
         1        2.0000           -0.6956239             -18.9289
         2        2.0000           -0.6393070             -17.3964
         3        2.0000           -0.5593275             -15.2201
         4        2.0000           -0.5449722             -14.8294
         5        2.0000           -0.5143112             -13.9951
         6        2.0000           -0.4985467             -13.5661
         7        2.0000           -0.4384488             -11.9308
         8        1.0000           -0.4041882             -10.9985
         9        1.0000           -0.3998185             -10.8796
        10        1.0000           -0.3407103              -9.2712 (HOMO)
        11                         -0.2645872              -7.1998 (LUMO)
        12                         -0.2032281              -5.5301
        13                         -0.0210010              -0.5715
        14                          0.0775233               2.1095
        15                          0.2732442               7.4354
        16                          0.4520725              12.3015
        17                          0.7747646              21.0824
      -------------------------------------------------------------
                  HL-Gap            0.0761231 Eh            2.0714 eV

     #   Z        covCN         q      C6AA      Î±(0)
     1   6 C      1.908    -0.098    33.824     9.393
     2   6 C      2.939     0.093    25.930     8.351
     3   6 C      1.959    -0.052    32.479     9.203
     4   6 C      1.960    -0.029    31.858     9.115
     5   1 H      0.927     0.087     1.909     2.161

Wiberg/Mayer (AO) data.
largest (>0.10) Wiberg bond orders for each atom
          total WBO             WBO to atom ...

molecular dipole:
                 x           y           z       tot (Debye)
 q only:        0.309       0.054      -0.002
   full:        0.596       0.178      -0.007       1.580

 projected vibrational frequencies (cm-1)
eigval :       -0.00    -0.00     0.00     0.00     0.00     0.00
eigval :      340.20   352.63   624.49   658.53   752.42   910.33
eigval :     1487.35  1748.69  3145.93

   temp. (K)  partition function   enthalpy   heat capacity  entropy
                                   cal/mol     cal/K/mol   cal/K/mol   J/K/mol
  10.00  VIB   1.00                    0.000      0.000     -0.002
         ROT   106.                   29.809      2.981     12.257
         INT   106.                   29.809      2.981     12.255
         TR   0.204E+25               49.681      4.968     20.719
         TOT                          79.4904     7.9490    32.9740   137.9634

       T/K    H(0)-H(T)+PV         H(T)/Eh          T*S/Eh         G(T)/Eh
   ------------------------------------------------------------------------
    298.15    0.493710E-02    0.277657E-01    0.301660E-01   -0.240032E-02
    120.00    0.157378E-02    0.244023E-01    0.101485E-01    0.142539E-01
    100.00    0.128924E-02    0.241178E-01    0.819794E-02    0.159199E-01
     80.00    0.101973E-02    0.238483E-01    0.631806E-02    0.175302E-01
     60.00    0.760843E-03    0.235894E-01    0.451532E-02    0.190741E-01
     40.00    0.506717E-03    0.233353E-01    0.280422E-02    0.205311E-01
     20.00    0.253352E-03    0.230819E-01    0.122653E-02    0.218554E-01
     10.00    0.126676E-03    0.229552E-01    0.525475E-03    0.224298E-01 (used)
   ------------------------------------------------------------------------

         :::::::::::::::::::::::::::::::::::::::::::::::::::::
         ::                  THERMODYNAMIC                  ::
         :::::::::::::::::::::::::::::::::::::::::::::::::::::
         :: total free energy          -8.623237415516 Eh   ::
         ::.................................................::
         :: total energy               -8.645667183470 Eh   ::
         :: zero point energy           0.022828566737 Eh   ::
         :: G(RRHO) w/o ZPVE           -0.000398798783 Eh   ::
         :: G(RRHO) contrib.            0.022429767954 Eh   ::
         :::::::::::::::::::::::::::::::::::::::::::::::::::::

           -------------------------------------------------
          | TOTAL ENERGY               -8.645667183470 Eh   |
          | TOTAL ENTHALPY             -8.622711940718 Eh   |
          | TOTAL FREE ENERGY          -8.623237415516 Eh   |
          | GRADIENT NORM               0.000506158384 Eh/Î± |
          | HOMO-LUMO GAP               2.071415051894 eV   |
           -------------------------------------------------

 * finished run on 2020/05/12 at 11:45:09.807
