   * xtb version 6.2.2 (9d81278992624c895f80dd42a50cac0aa55982e2) compiled by '@Darwin' on 04/03/2020
          program call               : xtb --input C4N1_43_S_3.input C4N1_43_S_3.xyz --ohess --molden --namespace C4N1_43_S_3 output.out
          number of atoms            :                     5
          number of electrons        :                    21
          charge                     :                     0
          spin                       :                   1.5

   ID    Z sym.   atoms
    1    6 C      1, 3-5
    2    7 N      2

          :  Hamiltonian                  GFN2-xTB          :
 * total energy  :   -10.8655488 Eh     change       -0.1451269E-08 Eh
 * total energy  :   -10.8833480 Eh     change       -0.1779925E-01 Eh
 * total energy  :   -10.8940016 Eh     change       -0.1065361E-01 Eh
 * total energy  :   -10.9038284 Eh     change       -0.9826830E-02 Eh
 * total energy  :   -10.9066366 Eh     change       -0.2808169E-02 Eh
 * total energy  :   -10.9248498 Eh     change       -0.1821323E-01 Eh
 * total energy  :   -10.9284167 Eh     change       -0.3566872E-02 Eh
 * total energy  :   -10.9298305 Eh     change       -0.1413815E-02 Eh
 * total energy  :   -10.9306625 Eh     change       -0.8319195E-03 Eh
 * total energy  :   -10.9314404 Eh     change       -0.7779253E-03 Eh
 * total energy  :   -10.9348926 Eh     change       -0.3452221E-02 Eh
 * total energy  :   -10.9500789 Eh     change       -0.1518625E-01 Eh
 * total energy  :   -10.9687582 Eh     change       -0.1867931E-01 Eh
 * total energy  :   -10.9757859 Eh     change       -0.7027702E-02 Eh
 * total energy  :   -10.9767395 Eh     change       -0.9536240E-03 Eh
 * total energy  :   -10.9775717 Eh     change       -0.8322213E-03 Eh
 * total energy  :   -10.9776046 Eh     change       -0.3287290E-04 Eh
 * total energy  :   -10.9776069 Eh     change       -0.2333354E-05 Eh
   *** GEOMETRY OPTIMIZATION CONVERGED AFTER 18 ITERATIONS ***

 final structure:
================
5
 xtb: 6.2.2 (9d81278992624c895f80dd42a50cac0aa55982e2)
C         1.02212988729221   -0.27707362266107    0.39768812620972
N         0.56298862946744    0.33234430197819   -0.74932330969377
C        -0.70509121829510   -0.44559590952509   -0.59704085235438
C        -0.27162710870953   -0.43435643809289    0.90882678864588
C        -0.60840018975502    0.82468166830086    0.03984924719256

          :  Hamiltonian                  GFN2-xTB          :
         :: gradient norm              0.000796391129 Eh/a0 ::
         :: HOMO-LUMO gap              2.214800246164 eV    ::
         :: SCC energy               -11.093637278791 Eh    ::
         :: -> dispersion             -0.002660636582 Eh    ::
         :: repulsion energy           0.116030342225 Eh    ::

    * Orbital Energies and Occupations

         #    Occupation            Energy/Eh            Energy/eV
      -------------------------------------------------------------
         1        2.0000           -0.7765212             -21.1302
         2        2.0000           -0.6768361             -18.4176
         3        2.0000           -0.6556638             -17.8415
         4        2.0000           -0.6253936             -17.0178
         5        2.0000           -0.5767483             -15.6941
         6        2.0000           -0.5244417             -14.2708
         7        2.0000           -0.5080421             -13.8245
         8        2.0000           -0.5010729             -13.6349
         9        2.0000           -0.4721233             -12.8471
        10        1.0000           -0.4486576             -12.2086
        11        1.0000           -0.4057140             -11.0400
        12        1.0000           -0.3963352             -10.7848 (HOMO)
        13                         -0.3149428              -8.5700 (LUMO)
        14                         -0.1534375              -4.1752
        15                         -0.1332101              -3.6248
        16                         -0.0557703              -1.5176
        17                         -0.0160497              -0.4367
        18                          0.1166486               3.1742
        19                          0.2676724               7.2837
        20                          0.3963787              10.7860
      -------------------------------------------------------------
                  HL-Gap            0.0813924 Eh            2.2148 eV

     #   Z        covCN         q      C6AA      Î±(0)
     1   6 C      2.870     0.029    27.346     8.572
     2   7 N      3.053    -0.080    22.780     7.089
     3   6 C      3.344     0.034    24.672     7.845
     4   6 C      3.256    -0.018    27.314     8.451
     5   6 C      3.344     0.034    24.660     7.842

Wiberg/Mayer (AO) data.
largest (>0.10) Wiberg bond orders for each atom
          total WBO             WBO to atom ...

molecular dipole:
                 x           y           z       tot (Debye)
 q only:       -0.104      -0.026       0.069
   full:        0.072      -0.033       0.056       0.246

 projected vibrational frequencies (cm-1)
eigval :       -0.00    -0.00    -0.00     0.00     0.00     0.00
eigval :     -245.70  -215.65   639.03   715.24   895.71   924.32
eigval :     1190.36  1351.64  1420.25

   temp. (K)  partition function   enthalpy   heat capacity  entropy
                                   cal/mol     cal/K/mol   cal/K/mol   J/K/mol
  10.00  VIB   1.00                    0.000      0.000     -0.000
         ROT   139.                   29.809      2.981     12.786
         INT   139.                   29.809      2.981     12.786
         TR   0.290E+25               49.681      4.968     21.419
         TOT                          79.4904     7.9490    34.2052   143.1146

       T/K    H(0)-H(T)+PV         H(T)/Eh          T*S/Eh         G(T)/Eh
   ------------------------------------------------------------------------
    298.15    0.416068E-02    0.204189E-01    0.295582E-01   -0.913923E-02
    120.00    0.152226E-02    0.177805E-01    0.103198E-01    0.746073E-02
    100.00    0.126718E-02    0.175254E-01    0.836738E-02    0.915804E-02
     80.00    0.101345E-02    0.172717E-01    0.646750E-02    0.108042E-01
     60.00    0.760057E-03    0.170183E-01    0.463201E-02    0.123863E-01
     40.00    0.506704E-03    0.167649E-01    0.288261E-02    0.138823E-01
     20.00    0.253352E-03    0.165116E-01    0.126575E-02    0.152458E-01
     10.00    0.126676E-03    0.163849E-01    0.545095E-03    0.158398E-01 (used)
   ------------------------------------------------------------------------

         :::::::::::::::::::::::::::::::::::::::::::::::::::::
         ::                  THERMODYNAMIC                  ::
         :::::::::::::::::::::::::::::::::::::::::::::::::::::
         :: total free energy         -10.961767093399 Eh   ::
         ::.................................................::
         :: total energy              -10.977606916443 Eh   ::
         :: zero point energy           0.016258241920 Eh   ::
         :: G(RRHO) w/o ZPVE           -0.000418418877 Eh   ::
         :: G(RRHO) contrib.            0.015839823044 Eh   ::
         :::::::::::::::::::::::::::::::::::::::::::::::::::::

           -------------------------------------------------
          | TOTAL ENERGY              -10.977606916443 Eh   |
          | TOTAL ENTHALPY            -10.961221998507 Eh   |
          | TOTAL FREE ENERGY         -10.961767093399 Eh   |
          | GRADIENT NORM               0.000796377532 Eh/Î± |
          | HOMO-LUMO GAP               2.214799350712 eV   |
           -------------------------------------------------

 * finished run on 2020/05/12 at 11:44:18.007
