   * xtb version 6.2.2 (9d81278992624c895f80dd42a50cac0aa55982e2) compiled by '@Darwin' on 04/03/2020
          program call               : xtb --input H1C3N1_8_S_2.input H1C3N1_8_S_2.xyz --ohess --molden --namespace H1C3N1_8_S_2 output.out
          number of atoms            :                     5
          number of electrons        :                    18
          charge                     :                     0
          spin                       :                   1.0

   ID    Z sym.   atoms
    1    6 C      1-3
    2    7 N      4
    3    1 H      5

          :  Hamiltonian                  GFN2-xTB          :
 * total energy  :    -9.4074833 Eh     change       -0.9304202E-10 Eh
 * total energy  :    -9.5090053 Eh     change       -0.1015220E+00 Eh
 * total energy  :    -9.5056603 Eh     change        0.3344986E-02 Eh
 * total energy  :    -9.5403621 Eh     change       -0.3470182E-01 Eh
 * total energy  :    -9.5458390 Eh     change       -0.5476876E-02 Eh
 * total energy  :    -9.5479549 Eh     change       -0.2115844E-02 Eh
 * total energy  :    -9.5532944 Eh     change       -0.5339534E-02 Eh
 * total energy  :    -9.5421380 Eh     change        0.1115640E-01 Eh
 * total energy  :    -9.5556981 Eh     change       -0.1356007E-01 Eh
 * total energy  :    -9.5568130 Eh     change       -0.1114960E-02 Eh
 * total energy  :    -9.5608391 Eh     change       -0.1315815E-03 Eh
 * total energy  :    -9.5608722 Eh     change       -0.3311745E-04 Eh
 * total energy  :    -9.5608740 Eh     change       -0.1742771E-05 Eh
 * total energy  :    -9.5608794 Eh     change       -0.5403549E-05 Eh
 * total energy  :    -9.5608822 Eh     change       -0.2825784E-05 Eh
 * total energy  :    -9.5609008 Eh     change       -0.1857581E-04 Eh
 * total energy  :    -9.5609281 Eh     change       -0.2728877E-04 Eh
 * total energy  :    -9.5609372 Eh     change       -0.9157277E-05 Eh
 * total energy  :    -9.5609382 Eh     change       -0.1015158E-05 Eh
   *** GEOMETRY OPTIMIZATION CONVERGED AFTER 25 ITERATIONS ***

 final structure:
================
5
 xtb: 6.2.2 (9d81278992624c895f80dd42a50cac0aa55982e2)
C         2.30958425445549   -0.01058341260920    0.70891393143971
C         1.14627001430271   -0.12824218109207    0.32156053919742
C        -0.16486603326349    0.12082969184748    0.24585811513235
N        -1.20256762255036   -0.21230494950733   -0.31451340870431
H        -2.08842061294433    0.23030085136113   -0.10601917706518

          :  Hamiltonian                  GFN2-xTB          :
         :: gradient norm              0.000536323185 Eh/a0 ::
         :: HOMO-LUMO gap              0.826047507638 eV    ::
         :: SCC energy                -9.776275770168 Eh    ::
         :: -> dispersion             -0.002071058302 Eh    ::
         :: repulsion energy           0.215337887574 Eh    ::

    * Orbital Energies and Occupations

         #    Occupation            Energy/Eh            Energy/eV
      -------------------------------------------------------------
         1        2.0000           -0.6625542             -18.0290
         2        2.0000           -0.6398832             -17.4121
         3        2.0000           -0.5957546             -16.2113
         4        2.0000           -0.5413451             -14.7308
         5        2.0000           -0.5099664             -13.8769
         6        2.0000           -0.5038002             -13.7091
         7        2.0000           -0.4446575             -12.0997
         8        2.0000           -0.4381628             -11.9230
         9        1.0000           -0.4069562             -11.0738
        10        1.0000           -0.3152994              -8.5797 (HOMO)
        11        0.0000           -0.2849426              -7.7537 (LUMO)
        12                         -0.1485723              -4.0429
        13                         -0.1122189              -3.0536
        14                          0.0791459               2.1537
        15                          0.3082909               8.3890
        16                          0.7573656              20.6090
        17                          1.1309340              30.7743
      -------------------------------------------------------------
                  HL-Gap            0.0303567 Eh            0.8260 eV

     #   Z        covCN         q      C6AA      Î±(0)
     1   6 C      0.984    -0.062    37.875    10.338
     2   6 C      1.965     0.000    31.064     9.001
     3   6 C      1.894     0.078    29.154     8.720
     4   7 N      1.774    -0.201    26.172     7.576
     5   1 H      0.860     0.186     1.183     1.703

Wiberg/Mayer (AO) data.
largest (>0.10) Wiberg bond orders for each atom
          total WBO             WBO to atom ...

molecular dipole:
                 x           y           z       tot (Debye)
 q only:       -0.571       0.181       0.035
   full:       -0.555       0.278       0.131       1.611

 projected vibrational frequencies (cm-1)
eigval :       -0.00    -0.00    -0.00     0.00     0.00     0.00
eigval :      168.63   260.66   342.38   580.49   945.37  1056.96
eigval :     1895.94  2052.69  3345.61

   temp. (K)  partition function   enthalpy   heat capacity  entropy
                                   cal/mol     cal/K/mol   cal/K/mol   J/K/mol
  10.00  VIB   1.00                    0.000      0.000     -0.011
         ROT   60.5                   29.809      2.981     11.135
         INT   60.5                   29.809      2.981     11.124
         TR   0.217E+25               49.681      4.968     20.838
         TOT                          79.4904     7.9490    31.9619   133.7287

       T/K    H(0)-H(T)+PV         H(T)/Eh          T*S/Eh         G(T)/Eh
   ------------------------------------------------------------------------
    298.15    0.547730E-02    0.297369E-01    0.308546E-01   -0.111774E-02
    120.00    0.172068E-02    0.259803E-01    0.101697E-01    0.158106E-01
    100.00    0.138187E-02    0.256415E-01    0.816634E-02    0.174751E-01
     80.00    0.106673E-02    0.253263E-01    0.625226E-02    0.190741E-01
     60.00    0.776490E-03    0.250361E-01    0.443920E-02    0.205969E-01
     40.00    0.508600E-03    0.247682E-01    0.274263E-02    0.220256E-01
     20.00    0.253356E-03    0.245130E-01    0.119446E-02    0.233185E-01
     10.00    0.126676E-03    0.243863E-01    0.509346E-03    0.238769E-01 (used)
   ------------------------------------------------------------------------

         :::::::::::::::::::::::::::::::::::::::::::::::::::::
         ::                  THERMODYNAMIC                  ::
         :::::::::::::::::::::::::::::::::::::::::::::::::::::
         :: total free energy          -9.537061293539 Eh   ::
         ::.................................................::
         :: total energy               -9.560938227321 Eh   ::
         :: zero point energy           0.024259603566 Eh   ::
         :: G(RRHO) w/o ZPVE           -0.000382669784 Eh   ::
         :: G(RRHO) contrib.            0.023876933783 Eh   ::
         :::::::::::::::::::::::::::::::::::::::::::::::::::::

           -------------------------------------------------
          | TOTAL ENERGY               -9.560938227321 Eh   |
          | TOTAL ENTHALPY             -9.536551947739 Eh   |
          | TOTAL FREE ENERGY          -9.537061293539 Eh   |
          | GRADIENT NORM               0.000536306229 Eh/Î± |
          | HOMO-LUMO GAP               0.826048819295 eV   |
           -------------------------------------------------

 * finished run on 2020/05/12 at 11:44:53.583
