   * xtb version 6.2.2 (9d81278992624c895f80dd42a50cac0aa55982e2) compiled by '@Darwin' on 04/03/2020
          program call               : xtb --input C4_0_S_2.input C4_0_S_2.xyz --ohess --molden --namespace C4_0_S_2 output.out
          number of atoms            :                     4
          number of electrons        :                    16
          charge                     :                     0
          spin                       :                   1.0

   ID    Z sym.   atoms
    1    6 C      1-4

          :  Hamiltonian                  GFN2-xTB          :
 * total energy  :    -7.9591254 Eh     change       -0.5411316E-10 Eh
 * total energy  :    -8.0054997 Eh     change       -0.4637422E-01 Eh
 * total energy  :    -8.0100915 Eh     change       -0.4591788E-02 Eh
 * total energy  :    -8.0119136 Eh     change       -0.1822108E-02 Eh
 * total energy  :    -8.0119815 Eh     change       -0.6790213E-04 Eh
 * total energy  :    -8.0119883 Eh     change       -0.6867447E-05 Eh
 * total energy  :    -8.0119900 Eh     change       -0.1633833E-05 Eh
   *** GEOMETRY OPTIMIZATION CONVERGED AFTER 7 ITERATIONS ***

 final structure:
================
4
 xtb: 6.2.2 (9d81278992624c895f80dd42a50cac0aa55982e2)
C         1.14335904678654   -0.47565833472644   -0.14793224611612
C         0.00138178059645   -0.00179189745478    0.42665100870093
C        -0.98484008775895   -0.75185880119363   -0.14217932166680
C        -0.15990073962404    1.22930903337485   -0.13653844091801

          :  Hamiltonian                  GFN2-xTB          :
         :: gradient norm              0.000064547801 Eh/a0 ::
         :: HOMO-LUMO gap              1.977408813063 eV    ::
         :: SCC energy                -8.132219794529 Eh    ::
         :: -> dispersion             -0.002039287889 Eh    ::
         :: repulsion energy           0.120229797801 Eh    ::

    * Orbital Energies and Occupations

         #    Occupation            Energy/Eh            Energy/eV
      -------------------------------------------------------------
         1        2.0000           -0.7523268             -20.4719
         2        2.0000           -0.6735207             -18.3274
         3        2.0000           -0.6735200             -18.3274
         4        2.0000           -0.5708083             -15.5325
         5        2.0000           -0.5163482             -14.0505
         6        2.0000           -0.5026456             -13.6777
         7        2.0000           -0.5026451             -13.6777
         8        1.0000           -0.4315360             -11.7427
         9        1.0000           -0.4315348             -11.7427 (HOMO)
        10                         -0.3588664              -9.7653 (LUMO)
        11                         -0.3588648              -9.7652
        12                         -0.3563843              -9.6977
        13                         -0.2936060              -7.9894
        14                          0.3063952               8.3374
        15                          0.3064038               8.3377
        16                          0.4485524              12.2057
      -------------------------------------------------------------
                  HL-Gap            0.0726684 Eh            1.9774 eV

     #   Z        covCN         q      C6AA      Î±(0)
     1   6 C      1.411    -0.068    37.501    10.252
Molecule has the following symmetry elements: (C3) 3*(sigma)
It seems to be the C3v point group
     2   6 C      2.941     0.205    23.665     7.978
     3   6 C      1.411    -0.068    37.502    10.252
     4   6 C      1.411    -0.068    37.502    10.252

Wiberg/Mayer (AO) data.
largest (>0.10) Wiberg bond orders for each atom
          total WBO             WBO to atom ...

molecular dipole:
                 x           y           z       tot (Debye)
 q only:        0.001      -0.001       0.220
   full:        0.002      -0.002       0.485       1.232

 projected vibrational frequencies (cm-1)
eigval :       -0.00    -0.00    -0.00     0.00     0.00     0.00
eigval :      166.62   167.25   293.07  1274.17  1274.22  1314.16

   temp. (K)  partition function   enthalpy   heat capacity  entropy
                                   cal/mol     cal/K/mol   cal/K/mol   J/K/mol
  10.00  VIB   1.00                    0.000      0.000     -0.018
         ROT   35.6                   29.809      2.981     10.078
         INT   35.6                   29.809      2.981     10.060
         TR   0.198E+25               49.681      4.968     20.657
         TOT                          79.4904     7.9490    30.7175   128.5220

       T/K    H(0)-H(T)+PV         H(T)/Eh          T*S/Eh         G(T)/Eh
   ------------------------------------------------------------------------
    298.15    0.546999E-02    0.156978E-01    0.305010E-01   -0.148032E-01
    120.00    0.179879E-02    0.120266E-01    0.100560E-01    0.197060E-02
    100.00    0.143822E-02    0.116660E-01    0.805179E-02    0.361423E-02
     80.00    0.109982E-02    0.113276E-01    0.613992E-02    0.518771E-02
     60.00    0.789537E-03    0.110173E-01    0.433774E-02    0.667959E-02
     40.00    0.510503E-03    0.107383E-01    0.266615E-02    0.807215E-02
     20.00    0.253361E-03    0.104812E-01    0.115497E-02    0.932620E-02
     10.00    0.126676E-03    0.103545E-01    0.489515E-03    0.986496E-02 (used)
   ------------------------------------------------------------------------

         :::::::::::::::::::::::::::::::::::::::::::::::::::::
         ::                  THERMODYNAMIC                  ::
         :::::::::::::::::::::::::::::::::::::::::::::::::::::
         :: total free energy          -8.002125009595 Eh   ::
         ::.................................................::
         :: total energy               -8.011989970609 Eh   ::
         :: zero point energy           0.010227799614 Eh   ::
         :: G(RRHO) w/o ZPVE           -0.000362838600 Eh   ::
         :: G(RRHO) contrib.            0.009864961014 Eh   ::
         :::::::::::::::::::::::::::::::::::::::::::::::::::::

           -------------------------------------------------
          | TOTAL ENERGY               -8.011989970609 Eh   |
          | TOTAL ENTHALPY             -8.001635494979 Eh   |
          | TOTAL FREE ENERGY          -8.002125009595 Eh   |
          | GRADIENT NORM               0.000064552708 Eh/Î± |
          | HOMO-LUMO GAP               1.977407966975 eV   |
           -------------------------------------------------

 * finished run on 2020/05/12 at 14:38:39.503
