   * xtb version 6.2.2 (9d81278992624c895f80dd42a50cac0aa55982e2) compiled by '@Darwin' on 04/03/2020
          program call               : xtb --input C4N1_39_S_3.input C4N1_39_S_3.xyz --ohess --molden --namespace C4N1_39_S_3 output.out
          number of atoms            :                     5
          number of electrons        :                    21
          charge                     :                     0
          spin                       :                   1.5

   ID    Z sym.   atoms
    1    7 N      1
    2    6 C      2-5

          :  Hamiltonian                  GFN2-xTB          :
 * total energy  :   -10.9253273 Eh     change       -0.3436913E-09 Eh
 * total energy  :   -10.9618784 Eh     change       -0.3655117E-01 Eh
 * total energy  :   -10.9998462 Eh     change       -0.3796781E-01 Eh
 * total energy  :   -11.0173646 Eh     change       -0.1751840E-01 Eh
 * total energy  :   -11.0283872 Eh     change       -0.1102254E-01 Eh
 * total energy  :   -11.0308218 Eh     change       -0.2434585E-02 Eh
 * total energy  :   -11.0341568 Eh     change       -0.3335082E-02 Eh
 * total energy  :   -11.0359933 Eh     change       -0.1836490E-02 Eh
 * total energy  :   -11.0371506 Eh     change       -0.1157279E-02 Eh
 * total energy  :   -11.0382671 Eh     change       -0.1116484E-02 Eh
 * total energy  :   -11.0388670 Eh     change       -0.5998910E-03 Eh
 * total energy  :   -11.0389262 Eh     change       -0.5917877E-04 Eh
 * total energy  :   -11.0389353 Eh     change       -0.9138475E-05 Eh
 * total energy  :   -11.0389384 Eh     change       -0.3090155E-05 Eh
 * total energy  :   -11.0389407 Eh     change       -0.2291270E-05 Eh
   *** GEOMETRY OPTIMIZATION CONVERGED AFTER 15 ITERATIONS ***

 final structure:
================
5
 xtb: 6.2.2 (9d81278992624c895f80dd42a50cac0aa55982e2)
N        -1.24717809112623   -0.38730359647597    0.10448931589808
C        -0.01963246684819   -0.81527664052074    0.24227768442737
C         0.73784239840629    0.78956930797734   -0.22947998190172
C         1.27710341739280   -0.38062807170888    0.12653247613465
C        -0.74813625782466    0.79363800072825   -0.24381949455838

          :  Hamiltonian                  GFN2-xTB          :
         :: gradient norm              0.000910925645 Eh/a0 ::
         :: HOMO-LUMO gap              2.792123346953 eV    ::
         :: SCC energy               -11.205277520122 Eh    ::
         :: -> dispersion             -0.002737138777 Eh    ::
         :: repulsion energy           0.166336817188 Eh    ::

    * Orbital Energies and Occupations

         #    Occupation            Energy/Eh            Energy/eV
      -------------------------------------------------------------
         1        2.0000           -0.7453315             -20.2815
         2        2.0000           -0.6878863             -18.7183
         3        2.0000           -0.6439730             -17.5234
         4        2.0000           -0.5944679             -16.1763
         5        2.0000           -0.5798556             -15.7787
         6        2.0000           -0.5755252             -15.6608
         7        2.0000           -0.5042542             -13.7215
         8        2.0000           -0.4643639             -12.6360
         9        2.0000           -0.4502514             -12.2520
        10        1.0000           -0.4159255             -11.3179
        11        1.0000           -0.4148721             -11.2892
        12        1.0000           -0.3956945             -10.7674 (HOMO)
        13                         -0.2930861              -7.9753 (LUMO)
        14                         -0.2501380              -6.8066
        15                         -0.2162993              -5.8858
        16                          0.1147070               3.1213
        17                          0.1458653               3.9692
        18                          0.2802618               7.6263
        19                          0.4060462              11.0491
        20                          0.6226401              16.9429
      -------------------------------------------------------------
Molecule has the following symmetry elements: (sigma)
It seems to be the Cs point group
                  HL-Gap            0.1026084 Eh            2.7921 eV

     #   Z        covCN         q      C6AA      Î±(0)
     1   7 N      1.838    -0.146    24.948     7.402
     2   6 C      3.481     0.150    19.870     6.660
     3   6 C      2.767     0.005    27.898     8.650
     4   6 C      1.986    -0.051    32.430     9.197
     5   6 C      2.710     0.042    27.026     8.509

Wiberg/Mayer (AO) data.
largest (>0.10) Wiberg bond orders for each atom
          total WBO             WBO to atom ...

molecular dipole:
                 x           y           z       tot (Debye)
 q only:        0.162      -0.017       0.006
   full:        0.318      -0.119       0.038       0.869

 projected vibrational frequencies (cm-1)
eigval :       -0.00    -0.00    -0.00     0.00     0.00     0.00
eigval :      306.46   358.72   547.42   566.61   927.72   944.98
eigval :     1096.84  1438.83  1618.77

   temp. (K)  partition function   enthalpy   heat capacity  entropy
                                   cal/mol     cal/K/mol   cal/K/mol   J/K/mol
  10.00  VIB   1.00                    0.000      0.000     -0.002
         ROT   172.                   29.809      2.981     13.205
         INT   172.                   29.809      2.981     13.203
         TR   0.290E+25               49.681      4.968     21.419
         TOT                          79.4904     7.9490    34.6226   144.8608

       T/K    H(0)-H(T)+PV         H(T)/Eh          T*S/Eh         G(T)/Eh
   ------------------------------------------------------------------------
    298.15    0.504008E-02    0.228242E-01    0.311215E-01   -0.829731E-02
    120.00    0.158546E-02    0.193696E-01    0.104789E-01    0.889067E-02
    100.00    0.129509E-02    0.190792E-01    0.846806E-02    0.106112E-01
     80.00    0.102188E-02    0.188060E-01    0.653089E-02    0.122751E-01
     60.00    0.761264E-03    0.185454E-01    0.467347E-02    0.138719E-01
     40.00    0.506731E-03    0.182909E-01    0.290935E-02    0.153815E-01
     20.00    0.253352E-03    0.180375E-01    0.127907E-02    0.167584E-01
     10.00    0.126676E-03    0.179108E-01    0.551746E-03    0.173591E-01 (used)
   ------------------------------------------------------------------------

         :::::::::::::::::::::::::::::::::::::::::::::::::::::
         ::                  THERMODYNAMIC                  ::
         :::::::::::::::::::::::::::::::::::::::::::::::::::::
         :: total free energy         -11.021581593618 Eh   ::
         ::.................................................::
         :: total energy              -11.038940673881 Eh   ::
         :: zero point energy           0.017784149819 Eh   ::
         :: G(RRHO) w/o ZPVE           -0.000425069556 Eh   ::
         :: G(RRHO) contrib.            0.017359080263 Eh   ::
         :::::::::::::::::::::::::::::::::::::::::::::::::::::

           -------------------------------------------------
          | TOTAL ENERGY              -11.038940673881 Eh   |
          | TOTAL ENTHALPY            -11.021029848046 Eh   |
          | TOTAL FREE ENERGY         -11.021581593618 Eh   |
          | GRADIENT NORM               0.000911667690 Eh/Î± |
          | HOMO-LUMO GAP               2.792117181275 eV   |
           -------------------------------------------------

 * finished run on 2020/05/12 at 11:44:15.958
