   * xtb version 6.2.2 (9d81278992624c895f80dd42a50cac0aa55982e2) compiled by '@Darwin' on 04/03/2020
          program call               : xtb --input H2C2N1_2_S_3.input H2C2N1_2_S_3.xyz --ohess --molden --namespace H2C2N1_2_S_3 output.out
          number of atoms            :                     5
          number of electrons        :                    15
          charge                     :                     0
          spin                       :                   1.5

   ID    Z sym.   atoms
    1    6 C      1, 3
    2    7 N      2
    3    1 H      4, 5

          :  Hamiltonian                  GFN2-xTB          :
 * total energy  :    -7.8344186 Eh     change       -0.3826797E-09 Eh
 * total energy  :    -7.8909039 Eh     change       -0.5648522E-01 Eh
 * total energy  :    -7.9008501 Eh     change       -0.9946220E-02 Eh
 * total energy  :    -7.9156636 Eh     change       -0.1481351E-01 Eh
 * total energy  :    -7.9209160 Eh     change       -0.5252396E-02 Eh
 * total energy  :    -7.9276304 Eh     change       -0.6714398E-02 Eh
 * total energy  :    -7.9321294 Eh     change       -0.4498983E-02 Eh
 * total energy  :    -7.9353873 Eh     change       -0.3257884E-02 Eh
 * total energy  :    -7.9364745 Eh     change       -0.1087241E-02 Eh
 * total energy  :    -7.9368181 Eh     change       -0.3436182E-03 Eh
 * total energy  :    -7.9369003 Eh     change       -0.8222845E-04 Eh
 * total energy  :    -7.9369237 Eh     change       -0.2337151E-04 Eh
 * total energy  :    -7.9369322 Eh     change       -0.8474625E-05 Eh
 * total energy  :    -7.9369395 Eh     change       -0.7286732E-05 Eh
 * total energy  :    -7.9369424 Eh     change       -0.2900578E-05 Eh
   *** GEOMETRY OPTIMIZATION CONVERGED AFTER 15 ITERATIONS ***

 final structure:
================
5
 xtb: 6.2.2 (9d81278992624c895f80dd42a50cac0aa55982e2)
C        -0.44783550681223   -0.07452109249113    0.00843396720582
N        -1.10445695594788    1.00990914611091    0.04654167259429
C         0.88854781382329   -0.29750334034491   -0.02709593066398
H        -1.07421497595063   -0.98915109142848   -0.00002944940675
H         1.73795962488745    0.35126637815360   -0.02784925972937

          :  Hamiltonian                  GFN2-xTB          :
         :: gradient norm              0.000753238638 Eh/a0 ::
         :: HOMO-LUMO gap              4.538188908025 eV    ::
         :: SCC energy                -8.055869598499 Eh    ::
         :: -> dispersion             -0.001484030762 Eh    ::
         :: repulsion energy           0.118927174849 Eh    ::

    * Orbital Energies and Occupations

         #    Occupation            Energy/Eh            Energy/eV
      -------------------------------------------------------------
         1        2.0000           -0.6636307             -18.0583
         2        2.0000           -0.6186982             -16.8356
         3        2.0000           -0.5696792             -15.5018
         4        2.0000           -0.5184322             -14.1073
         5        2.0000           -0.4969066             -13.5215
         6        2.0000           -0.4558629             -12.4047
         7        1.0000           -0.3823135             -10.4033
         8        1.0000           -0.3777797             -10.2799
         9        1.0000           -0.3672370              -9.9930 (HOMO)
        10                         -0.2004617              -5.4548 (LUMO)
        11                          0.0935949               2.5468
Molecule has the following symmetry elements: (sigma)
It seems to be the Cs point group
        12                          0.2497617               6.7964
        13                          0.3659909               9.9591
        14                          0.6246516              16.9976
      -------------------------------------------------------------
                  HL-Gap            0.1667753 Eh            4.5382 eV

     #   Z        covCN         q      C6AA      Î±(0)
     1   6 C      2.813     0.098    25.819     8.325
     2   7 N      0.918    -0.223    25.840     7.348
     3   6 C      1.915    -0.090    33.578     9.358
     4   1 H      0.922     0.120     1.613     1.986
     5   1 H      0.927     0.096     1.826     2.113

Wiberg/Mayer (AO) data.
largest (>0.10) Wiberg bond orders for each atom
          total WBO             WBO to atom ...

molecular dipole:
                 x           y           z       tot (Debye)
 q only:        0.303      -0.551      -0.019
   full:        0.439      -0.708      -0.025       2.119

 projected vibrational frequencies (cm-1)
eigval :       -0.00    -0.00    -0.00    -0.00     0.00     0.00
eigval :      477.43   634.67   776.70   799.45  1107.24  1300.77
eigval :     1479.60  2693.70  3147.45

   temp. (K)  partition function   enthalpy   heat capacity  entropy
                                   cal/mol     cal/K/mol   cal/K/mol   J/K/mol
  10.00  VIB   1.00                    0.000      0.000     -0.000
         ROT   48.6                   29.809      2.981     10.699
         INT   48.6                   29.809      2.981     10.699
         TR   0.151E+25               49.681      4.968     20.115
         TOT                          79.4904     7.9490    30.8133   128.9228

       T/K    H(0)-H(T)+PV         H(T)/Eh          T*S/Eh         G(T)/Eh
   ------------------------------------------------------------------------
    298.15    0.436479E-02    0.326528E-01    0.282414E-01    0.441143E-02
    120.00    0.152925E-02    0.298173E-01    0.967940E-02    0.201379E-01
    100.00    0.126942E-02    0.295575E-01    0.782945E-02    0.217280E-01
     80.00    0.101385E-02    0.293019E-01    0.603555E-02    0.232663E-01
     60.00    0.760080E-03    0.290481E-01    0.430773E-02    0.247404E-01
     40.00    0.506704E-03    0.287947E-01    0.266641E-02    0.261283E-01
     20.00    0.253352E-03    0.285414E-01    0.115764E-02    0.273837E-01
     10.00    0.126676E-03    0.284147E-01    0.491041E-03    0.279237E-01 (used)
   ------------------------------------------------------------------------

         :::::::::::::::::::::::::::::::::::::::::::::::::::::
         ::                  THERMODYNAMIC                  ::
         :::::::::::::::::::::::::::::::::::::::::::::::::::::
         :: total free energy          -7.909018714082 Eh   ::
         ::.................................................::
         :: total energy               -7.936942382734 Eh   ::
         :: zero point energy           0.028288033544 Eh   ::
         :: G(RRHO) w/o ZPVE           -0.000364364892 Eh   ::
         :: G(RRHO) contrib.            0.027923668652 Eh   ::
         :::::::::::::::::::::::::::::::::::::::::::::::::::::

           -------------------------------------------------
          | TOTAL ENERGY               -7.936942382734 Eh   |
          | TOTAL ENTHALPY             -7.908527673174 Eh   |
          | TOTAL FREE ENERGY          -7.909018714082 Eh   |
          | GRADIENT NORM               0.000753257737 Eh/Î± |
          | HOMO-LUMO GAP               4.538186904067 eV   |
           -------------------------------------------------

 * finished run on 2020/05/12 at 11:44:45.813
