   * xtb version 6.2.2 (9d81278992624c895f80dd42a50cac0aa55982e2) compiled by '@Darwin' on 04/03/2020
          program call               : xtb --input C4N1_28_S_3.input C4N1_28_S_3.xyz --ohess --molden --namespace C4N1_28_S_3 output.out
          number of atoms            :                     5
          number of electrons        :                    21
          charge                     :                     0
          spin                       :                   1.5

   ID    Z sym.   atoms
    1    7 N      1
    2    6 C      2-5

          :  Hamiltonian                  GFN2-xTB          :
 * total energy  :   -10.8887503 Eh     change       -0.1874927E-08 Eh
 * total energy  :   -10.9227764 Eh     change       -0.3402619E-01 Eh
 * total energy  :   -10.9561943 Eh     change       -0.3341790E-01 Eh
 * total energy  :   -10.9650982 Eh     change       -0.8903815E-02 Eh
 * total energy  :   -10.9796541 Eh     change       -0.1455592E-01 Eh
 * total energy  :   -10.9846213 Eh     change       -0.4967217E-02 Eh
 * total energy  :   -10.9926759 Eh     change       -0.8054605E-02 Eh
 * total energy  :   -10.9953500 Eh     change       -0.2674124E-02 Eh
 * total energy  :   -10.9968845 Eh     change       -0.1534474E-02 Eh
 * total energy  :   -10.9992752 Eh     change       -0.2390686E-02 Eh
 * total energy  :   -11.0033959 Eh     change       -0.1829275E-04 Eh
 * total energy  :   -11.0034114 Eh     change       -0.1550060E-04 Eh
 * total energy  :   -11.0034189 Eh     change       -0.7521652E-05 Eh
 * total energy  :   -11.0034304 Eh     change       -0.1148202E-04 Eh
 * total energy  :   -11.0034503 Eh     change       -0.1986253E-04 Eh
 * total energy  :   -11.0034622 Eh     change       -0.1194555E-04 Eh
 * total energy  :   -11.0034945 Eh     change       -0.3222327E-04 Eh
 * total energy  :   -11.0035013 Eh     change       -0.6862050E-05 Eh
 * total energy  :   -11.0035028 Eh     change       -0.1480155E-05 Eh
   *** GEOMETRY OPTIMIZATION CONVERGED AFTER 30 ITERATIONS ***

 final structure:
================
5
 xtb: 6.2.2 (9d81278992624c895f80dd42a50cac0aa55982e2)
N         1.14689693570760   -0.24845741728113    0.76505118566802
C         0.01429142097436   -0.00877836444870    0.01764905004014
C        -1.13809197226374   -0.66487775974005   -0.64978079472598
C         1.39218915290366    0.54254237093668   -0.23810115743819
C        -1.41528553732188    0.37957017053321    0.10518171645601

          :  Hamiltonian                  GFN2-xTB          :
         :: gradient norm              0.000214069747 Eh/a0 ::
         :: HOMO-LUMO gap              2.734835700914 eV    ::
         :: SCC energy               -11.162067220619 Eh    ::
         :: -> dispersion             -0.002760926124 Eh    ::
         :: repulsion energy           0.158564359829 Eh    ::

    * Orbital Energies and Occupations

         #    Occupation            Energy/Eh            Energy/eV
      -------------------------------------------------------------
         1        2.0000           -0.7483931             -20.3648
         2        2.0000           -0.7270449             -19.7839
         3        2.0000           -0.6150756             -16.7371
         4        2.0000           -0.6047820             -16.4570
         5        2.0000           -0.5996708             -16.3179
         6        2.0000           -0.5401780             -14.6990
         7        2.0000           -0.5272718             -14.3478
         8        2.0000           -0.5162710             -14.0484
         9        1.9998           -0.4471241             -12.1669
        10        1.0002           -0.4306016             -11.7173
        11        1.0000           -0.4133932             -11.2490
        12        1.0000           -0.4093588             -11.1392 (HOMO)
        13                         -0.3088556              -8.4044 (LUMO)
        14                         -0.2881394              -7.8407
        15                         -0.0808916              -2.2012
        16                         -0.0639538              -1.7403
        17                         -0.0182642              -0.4970
        18                          0.3435744               9.3491
        19                          0.3872942              10.5388
        20                          0.4960560              13.4984
      -------------------------------------------------------------
                  HL-Gap            0.1005032 Eh            2.7348 eV

     #   Z        covCN         q      C6AA      Î±(0)
     1   7 N      1.820    -0.109    24.131     7.279
     2   6 C      3.842     0.208    17.308     5.918
     3   6 C      1.959    -0.019    31.574     9.074
     4   6 C      1.887    -0.062    32.802     9.250
     5   6 C      1.959    -0.019    31.574     9.074

Wiberg/Mayer (AO) data.
largest (>0.10) Wiberg bond orders for each atom
          total WBO             WBO to atom ...

molecular dipole:
                 x           y           z       tot (Debye)
 q only:       -0.302      -0.006      -0.103
   full:       -0.336      -0.120       0.043       0.912

 projected vibrational frequencies (cm-1)
eigval :       -0.00    -0.00     0.00     0.00     0.00     0.00
eigval :      283.81   324.07   366.28   370.93   737.61   743.58
eigval :     1368.85  1618.44  1765.07

   temp. (K)  partition function   enthalpy   heat capacity  entropy
                                   cal/mol     cal/K/mol   cal/K/mol   J/K/mol
  10.00  VIB   1.00                    0.000      0.000     -0.004
         ROT   208.                   29.809      2.981     13.589
         INT   208.                   29.809      2.981     13.585
         TR   0.290E+25               49.681      4.968     21.419
         TOT                          79.4904     7.9490    35.0044   146.4584

       T/K    H(0)-H(T)+PV         H(T)/Eh          T*S/Eh         G(T)/Eh
   ------------------------------------------------------------------------
    298.15    0.549876E-02    0.227642E-01    0.320779E-01   -0.931372E-02
    120.00    0.163747E-02    0.189029E-01    0.106185E-01    0.828437E-02
    100.00    0.131995E-02    0.185854E-01    0.855977E-02    0.100256E-01
     80.00    0.103012E-02    0.182956E-01    0.658958E-02    0.117060E-01
     60.00    0.762600E-03    0.180280E-01    0.471168E-02    0.133164E-01
     40.00    0.506770E-03    0.177722E-01    0.293382E-02    0.148384E-01
     20.00    0.253352E-03    0.175188E-01    0.129127E-02    0.162275E-01
     10.00    0.126676E-03    0.173921E-01    0.557831E-03    0.168343E-01 (used)
   ------------------------------------------------------------------------

         :::::::::::::::::::::::::::::::::::::::::::::::::::::
         ::                  THERMODYNAMIC                  ::
         :::::::::::::::::::::::::::::::::::::::::::::::::::::
         :: total free energy         -10.986668516813 Eh   ::
         ::.................................................::
         :: total energy              -11.003502805109 Eh   ::
         :: zero point energy           0.017265442912 Eh   ::
         :: G(RRHO) w/o ZPVE           -0.000431154616 Eh   ::
         :: G(RRHO) contrib.            0.016834288296 Eh   ::
         :::::::::::::::::::::::::::::::::::::::::::::::::::::

           -------------------------------------------------
          | TOTAL ENERGY              -11.003502805109 Eh   |
          | TOTAL ENTHALPY            -10.986110686182 Eh   |
          | TOTAL FREE ENERGY         -10.986668516813 Eh   |
          | GRADIENT NORM               0.000214082102 Eh/Î± |
          | HOMO-LUMO GAP               2.734831464803 eV   |
           -------------------------------------------------

 * finished run on 2020/05/12 at 11:44:10.835
