   * xtb version 6.2.2 (9d81278992624c895f80dd42a50cac0aa55982e2) compiled by '@Darwin' on 04/03/2020
          program call               : xtb --input C4N1_20_S_3.input C4N1_20_S_3.xyz --ohess --molden --namespace C4N1_20_S_3 output.out
          number of atoms            :                     5
          number of electrons        :                    21
          charge                     :                     0
          spin                       :                   1.5

   ID    Z sym.   atoms
    1    6 C      1, 3-5
    2    7 N      2

          :  Hamiltonian                  GFN2-xTB          :
 * total energy  :   -10.8737559 Eh     change       -0.1863171E-08 Eh
 * total energy  :   -10.9551211 Eh     change       -0.8136517E-01 Eh
 * total energy  :   -10.9103905 Eh     change        0.4473057E-01 Eh
 * total energy  :   -10.9951112 Eh     change       -0.8472073E-01 Eh
 * total energy  :   -11.0002139 Eh     change       -0.5102623E-02 Eh
 * total energy  :   -11.0093386 Eh     change       -0.9124750E-02 Eh
 * total energy  :   -11.0022631 Eh     change        0.7075541E-02 Eh
 * total energy  :   -11.0097279 Eh     change       -0.7464855E-02 Eh
 * total energy  :   -11.0099534 Eh     change       -0.2254785E-03 Eh
 * total energy  :   -11.0116649 Eh     change       -0.1711535E-02 Eh
 * total energy  :   -11.0117451 Eh     change       -0.8017785E-04 Eh
 * total energy  :   -11.0118119 Eh     change       -0.6675660E-04 Eh
 * total energy  :   -11.0119146 Eh     change       -0.1027320E-03 Eh
 * total energy  :   -11.0119480 Eh     change       -0.3338607E-04 Eh
 * total energy  :   -11.0119607 Eh     change       -0.1274258E-04 Eh
 * total energy  :   -11.0119671 Eh     change       -0.6338735E-05 Eh
 * total energy  :   -11.0119744 Eh     change       -0.7315038E-05 Eh
 * total energy  :   -11.0119782 Eh     change       -0.3786380E-05 Eh
 * total energy  :   -11.0119819 Eh     change       -0.3718897E-05 Eh
   *** GEOMETRY OPTIMIZATION CONVERGED AFTER 19 ITERATIONS ***

 final structure:
================
5
 xtb: 6.2.2 (9d81278992624c895f80dd42a50cac0aa55982e2)
C        -1.57730811431351   -0.48071697495943    0.23202122015278
N        -0.25012901427869   -0.10430762641203   -0.12694507732593
C         0.99804234729281   -0.25837906139402   -0.07187015383201
C        -1.39237762825090    0.80888079197739    0.10789540915977
C         2.22177240955029    0.03452187078809   -0.14110139815461

          :  Hamiltonian                  GFN2-xTB          :
         :: gradient norm              0.000674303870 Eh/a0 ::
         :: HOMO-LUMO gap              2.758681691191 eV    ::
         :: SCC energy               -11.213579972246 Eh    ::
         :: -> dispersion             -0.002855057757 Eh    ::
         :: repulsion energy           0.201598163725 Eh    ::

    * Orbital Energies and Occupations

         #    Occupation            Energy/Eh            Energy/eV
      -------------------------------------------------------------
         1        2.0000           -0.7419732             -20.1901
         2        2.0000           -0.6963311             -18.9481
         3        2.0000           -0.6470539             -17.6072
         4        2.0000           -0.6105333             -16.6135
         5        2.0000           -0.5861522             -15.9500
         6        2.0000           -0.5692484             -15.4900
         7        2.0000           -0.4983417             -13.5606
         8        2.0000           -0.4741919             -12.9034
         9        2.0000           -0.4448572             -12.1052
        10        1.0000           -0.4236773             -11.5288
        11        1.0000           -0.4173101             -11.3556
        12        1.0000           -0.3795636             -10.3285 (HOMO)
        13                         -0.2781839              -7.5698 (LUMO)
        14                         -0.2444796              -6.6526
        15                         -0.1825377              -4.9671
        16                         -0.0668771              -1.8198
        17                         -0.0663972              -1.8068
        18                          0.3845214              10.4634
        19                          0.5421438              14.7525
        20                          1.0310594              28.0566
      -------------------------------------------------------------
                  HL-Gap            0.1013797 Eh            2.7587 eV

     #   Z        covCN         q      C6AA      Î±(0)
     1   6 C      1.890     0.003    31.053     9.000
     2   7 N      2.726     0.070    20.024     6.646
     3   6 C      1.892     0.077    29.175     8.724
     4   6 C      1.887    -0.019    31.615     9.081
     5   6 C      0.983    -0.131    40.178    10.647

Wiberg/Mayer (AO) data.
largest (>0.10) Wiberg bond orders for each atom
          total WBO             WBO to atom ...

molecular dipole:
                 x           y           z       tot (Debye)
 q only:       -0.398      -0.091       0.005
   full:       -0.418      -0.298       0.004       1.305

 projected vibrational frequencies (cm-1)
eigval :       -0.00    -0.00    -0.00     0.00     0.00     0.00
eigval :      126.68   186.58   326.75   350.01   463.28   768.45
eigval :     1367.37  1614.38  1818.95

   temp. (K)  partition function   enthalpy   heat capacity  entropy
                                   cal/mol     cal/K/mol   cal/K/mol   J/K/mol
  10.00  VIB   1.00                    0.000      0.000     -0.026
         ROT   212.                   29.809      2.981     13.629
         INT   212.                   29.809      2.981     13.604
         TR   0.290E+25               49.681      4.968     21.419
         TOT                          79.4904     7.9490    35.0230   146.5362

       T/K    H(0)-H(T)+PV         H(T)/Eh          T*S/Eh         G(T)/Eh
   ------------------------------------------------------------------------
    298.15    0.614637E-02    0.221447E-01    0.336113E-01   -0.114666E-01
    120.00    0.184667E-02    0.178450E-01    0.109593E-01    0.688566E-02
    100.00    0.146713E-02    0.174654E-01    0.878765E-02    0.867777E-02
     80.00    0.111768E-02    0.171160E-01    0.671906E-02    0.103969E-01
     60.00    0.799908E-03    0.167982E-01    0.476580E-02    0.120324E-01
     40.00    0.513881E-03    0.165122E-01    0.294585E-02    0.135663E-01
     20.00    0.253417E-03    0.162517E-01    0.129254E-02    0.149592E-01
     10.00    0.126676E-03    0.161250E-01    0.558127E-03    0.155668E-01 (used)
   ------------------------------------------------------------------------

         :::::::::::::::::::::::::::::::::::::::::::::::::::::
         ::                  THERMODYNAMIC                  ::
         :::::::::::::::::::::::::::::::::::::::::::::::::::::
         :: total free energy         -10.996415063005 Eh   ::
         ::.................................................::
         :: total energy              -11.011981903411 Eh   ::
         :: zero point energy           0.015998291161 Eh   ::
         :: G(RRHO) w/o ZPVE           -0.000431450755 Eh   ::
         :: G(RRHO) contrib.            0.015566840406 Eh   ::
         :::::::::::::::::::::::::::::::::::::::::::::::::::::

           -------------------------------------------------
          | TOTAL ENERGY              -11.011981903411 Eh   |
          | TOTAL ENTHALPY            -10.995856936227 Eh   |
          | TOTAL FREE ENERGY         -10.996415063005 Eh   |
          | GRADIENT NORM               0.000674229365 Eh/Î± |
          | HOMO-LUMO GAP               2.758682488229 eV   |
           -------------------------------------------------

 * finished run on 2020/05/12 at 11:44:07.029
