   * xtb version 6.2.2 (9d81278992624c895f80dd42a50cac0aa55982e2) compiled by '@Darwin' on 04/03/2020
          program call               : xtb --input H1C3N1_25_S_0.input H1C3N1_25_S_0.xyz --ohess --molden --namespace H1C3N1_25_S_0 output.out
          number of atoms            :                     5
          number of electrons        :                    18
          charge                     :                     0
          spin                       :                   0.0

   ID    Z sym.   atoms
    1    6 C      1-3
    2    7 N      4
    3    1 H      5

          :  Hamiltonian                  GFN2-xTB          :
 * total energy  :    -9.4478498 Eh     change       -0.3494517E-08 Eh
 * total energy  :    -9.5042697 Eh     change       -0.5641987E-01 Eh
 * total energy  :    -9.4928507 Eh     change        0.1141904E-01 Eh
 * total energy  :    -9.5364785 Eh     change       -0.4362786E-01 Eh
 * total energy  :    -9.5389423 Eh     change       -0.2463749E-02 Eh
 * total energy  :    -9.5396625 Eh     change       -0.7202773E-03 Eh
 * total energy  :    -9.5396912 Eh     change       -0.2868178E-04 Eh
 * total energy  :    -9.5397006 Eh     change       -0.9400130E-05 Eh
 * total energy  :    -9.5397035 Eh     change       -0.2840746E-05 Eh
 * total energy  :    -9.5397045 Eh     change       -0.1000842E-05 Eh
   *** GEOMETRY OPTIMIZATION CONVERGED AFTER 10 ITERATIONS ***

 final structure:
================
5
 xtb: 6.2.2 (9d81278992624c895f80dd42a50cac0aa55982e2)
C        -0.37439504256511    0.76194588953561    0.02311392299938
C        -1.48630657249116    0.02521057149265    0.45400844726955
C        -0.40083717591944   -0.74844384747054    0.02039954743494
N         0.68896083974401   -0.01116472187886   -0.50205796588236
H         1.57257795123170   -0.02754789167885    0.00453604817850

          :  Hamiltonian                  GFN2-xTB          :
         :: gradient norm              0.000431506068 Eh/a0 ::
         :: HOMO-LUMO gap              2.081732830034 eV    ::
         :: SCC energy                -9.663972957482 Eh    ::
         :: -> dispersion             -0.002082419997 Eh    ::
         :: repulsion energy           0.124268487647 Eh    ::

    * Orbital Energies and Occupations

         #    Occupation            Energy/Eh            Energy/eV
      -------------------------------------------------------------
         1        2.0000           -0.7398846             -20.1333
         2        2.0000           -0.6613712             -17.9968
         3        2.0000           -0.6043010             -16.4439
         4        2.0000           -0.5982431             -16.2790
         5        2.0000           -0.5427598             -14.7692
         6        2.0000           -0.5299376             -14.4203
         7        2.0000           -0.4456810             -12.1276
         8        2.0000           -0.4272090             -11.6249
         9        2.0000           -0.4086387             -11.1196 (HOMO)
        10                         -0.3321366              -9.0379 (LUMO)
        11                         -0.2831212              -7.7041
        12                         -0.2339397              -6.3658
        13                          0.0238573               0.6492
        14                          0.1247590               3.3949
        15                          0.2068525               5.6287
        16                          0.2187364               5.9521
        17                          0.4118316              11.2065
      -------------------------------------------------------------
                  HL-Gap            0.0765022 Eh            2.0817 eV

     #   Z        covCN         q      C6AA      Î±(0)
     1   6 C      2.865     0.070    26.422     8.426
     2   6 C      1.969    -0.153    35.394     9.608
     3   6 C      2.865     0.070    26.422     8.426
     4   7 N      2.686    -0.156    24.371     7.332
     5   1 H      0.860     0.168     1.287     1.777

Wiberg/Mayer (AO) data.
largest (>0.10) Wiberg bond orders for each atom
          total WBO             WBO to atom ...

molecular dipole:
                 x           y           z       tot (Debye)
 q only:        0.621      -0.011       0.024
   full:        1.367      -0.024       0.056       3.478

 projected vibrational frequencies (cm-1)
eigval :       -0.00    -0.00    -0.00    -0.00    -0.00     0.00
eigval :      367.03   439.30   559.45   894.49   964.07  1064.43
Molecule has the following symmetry elements: (sigma)
It seems to be the Cs point group
eigval :     1355.21  1506.22  3292.35

   temp. (K)  partition function   enthalpy   heat capacity  entropy
                                   cal/mol     cal/K/mol   cal/K/mol   J/K/mol
  10.00  VIB   1.00                    0.000      0.000     -0.001
         ROT   82.4                   29.809      2.981     11.748
         INT   82.4                   29.809      2.981     11.746
         TR   0.217E+25               49.681      4.968     20.838
         TOT                          79.4904     7.9490    32.5842   136.3323

       T/K    H(0)-H(T)+PV         H(T)/Eh          T*S/Eh         G(T)/Eh
   ------------------------------------------------------------------------
    298.15    0.471632E-02    0.285062E-01    0.296324E-01   -0.112618E-02
    120.00    0.155453E-02    0.253444E-01    0.100492E-01    0.152952E-01
    100.00    0.127975E-02    0.250696E-01    0.812405E-02    0.169456E-01
     80.00    0.101654E-02    0.248064E-01    0.626451E-02    0.185419E-01
     60.00    0.760365E-03    0.245502E-01    0.447744E-02    0.200728E-01
     40.00    0.506707E-03    0.242966E-01    0.277933E-02    0.215172E-01
     20.00    0.253352E-03    0.240432E-01    0.121409E-02    0.228291E-01
     10.00    0.126676E-03    0.239165E-01    0.519262E-03    0.233973E-01 (used)
   ------------------------------------------------------------------------

         :::::::::::::::::::::::::::::::::::::::::::::::::::::
         ::                  THERMODYNAMIC                  ::
         :::::::::::::::::::::::::::::::::::::::::::::::::::::
         :: total free energy          -9.516307189213 Eh   ::
         ::.................................................::
         :: total energy               -9.539704468228 Eh   ::
         :: zero point energy           0.023789865162 Eh   ::
         :: G(RRHO) w/o ZPVE           -0.000392586147 Eh   ::
         :: G(RRHO) contrib.            0.023397279015 Eh   ::
         :::::::::::::::::::::::::::::::::::::::::::::::::::::

           -------------------------------------------------
          | TOTAL ENERGY               -9.539704468228 Eh   |
          | TOTAL ENTHALPY             -9.515787927050 Eh   |
          | TOTAL FREE ENERGY          -9.516307189213 Eh   |
          | GRADIENT NORM               0.000431524249 Eh/Î± |
          | HOMO-LUMO GAP               2.081729901002 eV   |
           -------------------------------------------------

 * finished run on 2020/05/12 at 11:45:00.214
