   * xtb version 6.2.2 (9d81278992624c895f80dd42a50cac0aa55982e2) compiled by '@Darwin' on 04/03/2020
          program call               : xtb --input H1C3N1_0_S_0.input H1C3N1_0_S_0.xyz --ohess --molden --namespace H1C3N1_0_S_0 output.out
          number of atoms            :                     5
          number of electrons        :                    18
          charge                     :                     0
          spin                       :                   0.0

   ID    Z sym.   atoms
    1    6 C      1-3
    2    7 N      4
    3    1 H      5

          :  Hamiltonian                  GFN2-xTB          :
 * total energy  :    -9.3560536 Eh     change        0.2381189E-09 Eh
 * total energy  :    -9.4225210 Eh     change       -0.6646736E-01 Eh
 * total energy  :    -9.4430440 Eh     change       -0.2052301E-01 Eh
 * total energy  :    -9.4601491 Eh     change       -0.1710516E-01 Eh
 * total energy  :    -9.4589880 Eh     change        0.1161162E-02 Eh
 * total energy  :    -9.4861091 Eh     change       -0.2712114E-01 Eh
 * total energy  :    -9.4063097 Eh     change        0.7979939E-01 Eh
 * total energy  :    -9.5379975 Eh     change       -0.1316878E+00 Eh
 * total energy  :    -9.5604106 Eh     change       -0.2241308E-01 Eh
 * total energy  :    -9.5573931 Eh     change        0.3017486E-02 Eh
 * total energy  :    -9.5821744 Eh     change       -0.1334122E-02 Eh
 * total energy  :    -9.5833341 Eh     change       -0.1159708E-02 Eh
 * total energy  :    -9.5837018 Eh     change       -0.3676685E-03 Eh
 * total energy  :    -9.5841914 Eh     change       -0.4896293E-03 Eh
 * total energy  :    -9.5845893 Eh     change       -0.3978847E-03 Eh
 * total energy  :    -9.5847545 Eh     change       -0.1652022E-03 Eh
 * total energy  :    -9.5848393 Eh     change       -0.8478559E-04 Eh
 * total energy  :    -9.5848571 Eh     change       -0.1782428E-04 Eh
 * total energy  :    -9.5848609 Eh     change       -0.3839665E-05 Eh
   *** GEOMETRY OPTIMIZATION CONVERGED AFTER 23 ITERATIONS ***

 final structure:
================
5
 xtb: 6.2.2 (9d81278992624c895f80dd42a50cac0aa55982e2)
C         0.48029980472173    0.06312492928519   -0.24992778894887
C        -0.93792785098531   -0.10611020880994    0.81152477902968
C        -0.56243758317896    0.95530575249136   -0.09048544340473
N        -0.52011355049918   -0.87366800917917   -0.20613297655773
H         1.54017917994172   -0.03865246378744   -0.26497857011835

          :  Hamiltonian                  GFN2-xTB          :
         :: gradient norm              0.000788719945 Eh/a0 ::
         :: HOMO-LUMO gap              3.164746238562 eV    ::
         :: SCC energy                -9.713049982663 Eh    ::
         :: -> dispersion             -0.001955705548 Eh    ::
         :: repulsion energy           0.128189013994 Eh    ::

    * Orbital Energies and Occupations

         #    Occupation            Energy/Eh            Energy/eV
      -------------------------------------------------------------
         1        2.0000           -0.7491873             -20.3864
         2        2.0000           -0.6417494             -17.4629
         3        2.0000           -0.6348070             -17.2740
         4        2.0000           -0.5914569             -16.0944
         5        2.0000           -0.5429990             -14.7758
         6        2.0000           -0.5241806             -14.2637
         7        2.0000           -0.4848604             -13.1937
         8        2.0000           -0.4385770             -11.9343
         9        2.0000           -0.4316955             -11.7470 (HOMO)
        10                         -0.3153932              -8.5823 (LUMO)
        11                         -0.2812223              -7.6524
        12                         -0.2771438              -7.5415
        13                          0.0582265               1.5844
        14                          0.0764845               2.0812
        15                          0.1246670               3.3924
        16                          0.2676800               7.2839
        17                          0.5983753              16.2826
      -------------------------------------------------------------
                  HL-Gap            0.1163023 Eh            3.1647 eV

     #   Z        covCN         q      C6AA      Î±(0)
     1   6 C      3.679     0.123    18.773     6.206
     2   6 C      2.751    -0.017    28.419     8.729
     3   6 C      2.626    -0.067    29.655     8.907
     4   7 N      2.486    -0.117    23.600     7.214
     5   1 H      0.927     0.078     2.003     2.213

Wiberg/Mayer (AO) data.
largest (>0.10) Wiberg bond orders for each atom
          total WBO             WBO to atom ...

molecular dipole:
                 x           y           z       tot (Debye)
 q only:        0.554       0.084      -0.067
   full:        1.106      -0.065      -0.160       2.846

 projected vibrational frequencies (cm-1)
eigval :       -0.00    -0.00    -0.00    -0.00     0.00     0.00
eigval :      587.52   635.46   761.78   812.62   954.20  1181.91
eigval :     1335.46  1505.81  3217.92

   temp. (K)  partition function   enthalpy   heat capacity  entropy
                                   cal/mol     cal/K/mol   cal/K/mol   J/K/mol
  10.00  VIB   1.00                    0.000      0.000     -0.000
         ROT   81.3                   29.809      2.981     11.720
         INT   81.3                   29.809      2.981     11.720
         TR   0.217E+25               49.681      4.968     20.838
         TOT                          79.4904     7.9490    32.5577   136.2212

       T/K    H(0)-H(T)+PV         H(T)/Eh          T*S/Eh         G(T)/Eh
   ------------------------------------------------------------------------
    298.15    0.432673E-02    0.293699E-01    0.289979E-01    0.372008E-03
    120.00    0.152452E-02    0.265677E-01    0.100073E-01    0.165604E-01
    100.00    0.126774E-02    0.263109E-01    0.810546E-02    0.182054E-01
     80.00    0.101351E-02    0.260567E-01    0.625755E-02    0.197991E-01
     60.00    0.760059E-03    0.258032E-01    0.447448E-02    0.213287E-01
     40.00    0.506704E-03    0.255499E-01    0.277760E-02    0.227723E-01
     20.00    0.253352E-03    0.252965E-01    0.121324E-02    0.240833E-01
     10.00    0.126676E-03    0.251698E-01    0.518839E-03    0.246510E-01 (used)
   ------------------------------------------------------------------------

         :::::::::::::::::::::::::::::::::::::::::::::::::::::
         ::                  THERMODYNAMIC                  ::
         :::::::::::::::::::::::::::::::::::::::::::::::::::::
         :: total free energy          -9.560209946760 Eh   ::
         ::.................................................::
         :: total energy               -9.584860943091 Eh   ::
         :: zero point energy           0.025043159581 Eh   ::
         :: G(RRHO) w/o ZPVE           -0.000392163250 Eh   ::
         :: G(RRHO) contrib.            0.024650996331 Eh   ::
         :::::::::::::::::::::::::::::::::::::::::::::::::::::

           -------------------------------------------------
          | TOTAL ENERGY               -9.584860943091 Eh   |
          | TOTAL ENTHALPY             -9.559691107494 Eh   |
          | TOTAL FREE ENERGY          -9.560209946760 Eh   |
          | GRADIENT NORM               0.000788546540 Eh/Î± |
          | HOMO-LUMO GAP               3.164747148526 eV   |
           -------------------------------------------------

 * finished run on 2020/05/12 at 11:44:49.975
