   * xtb version 6.2.2 (9d81278992624c895f80dd42a50cac0aa55982e2) compiled by '@Darwin' on 04/03/2020
          program call               : xtb --input H3C1_0_S_3.input H3C1_0_S_3.xyz --ohess --molden --namespace H3C1_0_S_3 output.out
          number of atoms            :                     4
          number of electrons        :                     7
          charge                     :                     0
          spin                       :                   1.5

   ID    Z sym.   atoms
    1    6 C      1
    2    1 H      2-4

          :  Hamiltonian                  GFN2-xTB          :
 * total energy  :    -2.9533466 Eh     change        0.1126676E-08 Eh
 * total energy  :    -3.1533325 Eh     change       -0.1999859E+00 Eh
 * total energy  :    -3.1948333 Eh     change       -0.4150080E-01 Eh
 * total energy  :    -3.2020207 Eh     change       -0.7187436E-02 Eh
 * total energy  :    -3.2025485 Eh     change       -0.5277703E-03 Eh
 * total energy  :    -3.2032212 Eh     change       -0.6727121E-03 Eh
 * total energy  :    -3.2032448 Eh     change       -0.2363056E-04 Eh
 * total energy  :    -3.2032458 Eh     change       -0.9843221E-06 Eh
   *** GEOMETRY OPTIMIZATION CONVERGED AFTER 8 ITERATIONS ***

 final structure:
================
4
 xtb: 6.2.2 (9d81278992624c895f80dd42a50cac0aa55982e2)
C        -0.00013865569761   -0.00009411290415    0.00061971584008
H         1.45080498943895   -0.32018229534302   -0.00253460069360
H        -1.00185065126959   -1.09561155995144    0.00028708259298
H        -0.44881568247174    1.41588796819860    0.00162680226054

          :  Hamiltonian                  GFN2-xTB          :
         :: gradient norm              0.000635897469 Eh/a0 ::
         :: HOMO-LUMO gap              3.521883747954 eV    ::
         :: SCC energy                -3.205281119320 Eh    ::
         :: -> dispersion             -0.000815682927 Eh    ::
         :: repulsion energy           0.002035221660 Eh    ::

    * Orbital Energies and Occupations

         #    Occupation            Energy/Eh            Energy/eV
      -------------------------------------------------------------
         1        2.0000           -0.5957366             -16.2108
         2        1.5023           -0.4656440             -12.6708
         3        1.4977           -0.4656269             -12.6704
         4        1.0000           -0.3528517              -9.6016
         5        1.0000           -0.2659489              -7.2368 (HOMO)
         6                         -0.1365221              -3.7150 (LUMO)
         7                         -0.1361968              -3.7061
      -------------------------------------------------------------
                  HL-Gap            0.1294268 Eh            3.5219 eV

     #   Z        covCN         q      C6AA      Î±(0)
     1   6 C      0.926    -0.182    41.541    10.795
     2   1 H      0.307     0.061     5.051     4.072
     3   1 H      0.310     0.061     5.025     4.060
     4   1 H      0.308     0.061     5.042     4.068

Wiberg/Mayer (AO) data.
largest (>0.10) Wiberg bond orders for each atom
          total WBO             WBO to atom ...

molecular dipole:
                 x           y           z       tot (Debye)
 q only:       -0.001      -0.000      -0.000
   full:       -0.001      -0.001      -0.000       0.004

 projected vibrational frequencies (cm-1)
eigval :       -0.00    -0.00    -0.00    -0.00     0.00     0.00
eigval :    -2494.00 -2485.92  -430.79  -418.74   895.79  1737.08

   temp. (K)  partition function   enthalpy   heat capacity  entropy
                                   cal/mol     cal/K/mol   cal/K/mol   J/K/mol
  10.00  VIB   1.00                    0.000      0.000     -0.000
         ROT  0.674                   29.809      2.981      2.196
         INT  0.674                   29.809      2.981      2.196
         TR   0.346E+24               49.681      4.968     17.196
         TOT                          79.4904     7.9490    19.3915    81.1341

       T/K    H(0)-H(T)+PV         H(T)/Eh          T*S/Eh         G(T)/Eh
   ------------------------------------------------------------------------
    298.15    0.383352E-02    0.983164E-02    0.221016E-01   -0.122699E-01
    120.00    0.152020E-02    0.751832E-02    0.748457E-02    0.337559E-04
    100.00    0.126677E-02    0.726489E-02    0.600618E-02    0.125871E-02
     80.00    0.101341E-02    0.701153E-02    0.457887E-02    0.243266E-02
     60.00    0.760056E-03    0.675818E-02    0.321556E-02    0.354261E-02
     40.00    0.506704E-03    0.650483E-02    0.193832E-02    0.456650E-02
     20.00    0.253352E-03    0.625147E-02    0.793604E-03    0.545787E-02
     10.00    0.126676E-03    0.612480E-02    0.309023E-03    0.581577E-02 (used)
   ------------------------------------------------------------------------

         :::::::::::::::::::::::::::::::::::::::::::::::::::::
         ::                  THERMODYNAMIC                  ::
         :::::::::::::::::::::::::::::::::::::::::::::::::::::
         :: total free energy          -3.197430060888 Eh   ::
         ::.................................................::
         :: total energy               -3.203245834866 Eh   ::
         :: zero point energy           0.005998121371 Eh   ::
         :: G(RRHO) w/o ZPVE           -0.000182347393 Eh   ::
         :: G(RRHO) contrib.            0.005815773978 Eh   ::
         :::::::::::::::::::::::::::::::::::::::::::::::::::::

           -------------------------------------------------
          | TOTAL ENERGY               -3.203245834866 Eh   |
          | TOTAL ENTHALPY             -3.197121037480 Eh   |
          | TOTAL FREE ENERGY          -3.197430060888 Eh   |
          | GRADIENT NORM               0.000636123619 Eh/Î± |
          | HOMO-LUMO GAP               3.521883254631 eV   |
           -------------------------------------------------

 * finished run on 2020/05/12 at 11:44:24.487
