   * xtb version 6.2.2 (9d81278992624c895f80dd42a50cac0aa55982e2) compiled by '@Darwin' on 04/03/2020
          program call               : xtb --input C1N1O1_0_S_1.input C1N1O1_0_S_1.xyz --ohess --molden --namespace C1N1O1_0_S_1 output.out
          number of atoms            :                     3
          number of electrons        :                    15
          charge                     :                     0
          spin                       :                   0.5

   ID    Z sym.   atoms
    1    6 C      1
    2    8 O      2
    3    7 N      3

          :  Hamiltonian                  GFN2-xTB          :
 * total energy  :    -8.8490055 Eh     change       -0.3135092E-10 Eh
 * total energy  :    -8.9677014 Eh     change       -0.1186959E+00 Eh
 * total energy  :    -8.9850349 Eh     change       -0.1733343E-01 Eh
 * total energy  :    -9.0183960 Eh     change       -0.3336118E-01 Eh
 * total energy  :    -9.0217751 Eh     change       -0.3379019E-02 Eh
 * total energy  :    -9.0237185 Eh     change       -0.1943403E-02 Eh
 * total energy  :    -9.0242396 Eh     change       -0.5211499E-03 Eh
 * total energy  :    -9.0242989 Eh     change       -0.5933091E-04 Eh
 * total energy  :    -9.0243037 Eh     change       -0.4776582E-05 Eh
   *** GEOMETRY OPTIMIZATION CONVERGED AFTER 9 ITERATIONS ***

 final structure:
================
3
 xtb: 6.2.2 (9d81278992624c895f80dd42a50cac0aa55982e2)
C        -0.01264304160755    0.00012599664890    0.00000000000000
O        -1.17483367394881   -0.00039211461718    0.00000000000000
N         1.18747671555637    0.00026511796828    0.00000000000000

          :  Hamiltonian                  GFN2-xTB          :
         :: gradient norm              0.000320861178 Eh/a0 ::
         :: HOMO-LUMO gap              7.143398164107 eV    ::
         :: SCC energy                -9.146587846855 Eh    ::
         :: -> dispersion             -0.000752511724 Eh    ::
         :: repulsion energy           0.122284135399 Eh    ::

    * Orbital Energies and Occupations

         #    Occupation            Energy/Eh            Energy/eV
      -------------------------------------------------------------
         1        2.0000           -0.8007170             -21.7886
         2        2.0000           -0.7197349             -19.5850
         3        2.0000           -0.6368995             -17.3309
         4        2.0000           -0.6336445             -17.2423
         5        2.0000           -0.6336444             -17.2423
         6        1.9994           -0.4955198             -13.4838
         7        1.5003           -0.4885155             -13.2932
         8        1.5003           -0.4885155             -13.2932 (HOMO)
         9                         -0.2260004              -6.1498 (LUMO)
        10                         -0.2260004              -6.1498
        11                          0.2534566               6.8969
        12                          1.1923760              32.4462
      -------------------------------------------------------------
                  HL-Gap            0.2625151 Eh            7.1434 eV

     #   Z        covCN         q      C6AA      Î±(0)
     1   6 C      1.766     0.348    23.545     7.845
     2   8 O      0.856    -0.163    17.477     5.605
     3   7 N      0.911    -0.185    25.006     7.232

Wiberg/Mayer (AO) data.
largest (>0.10) Wiberg bond orders for each atom
          total WBO             WBO to atom ...

molecular dipole:
                 x           y           z       tot (Debye)
 q only:       -0.061       0.000       0.000
   full:       -0.339       0.000       0.000       0.861

   temp. (K)  partition function   enthalpy   heat capacity  entropy
                                   cal/mol     cal/K/mol   cal/K/mol   J/K/mol
  10.00  VIB   1.00                    0.000      0.000     -0.001
         ROT   17.2                   19.873      1.987      7.640
         INT   17.2                   19.873      1.987      7.639
         TR   0.162E+25               49.681      4.968     20.258
         TOT                          69.5541     6.9554    27.8971   116.7213

       T/K    H(0)-H(T)+PV         H(T)/Eh          T*S/Eh         G(T)/Eh
   ------------------------------------------------------------------------
    298.15    0.397914E-02    0.138878E-01    0.254819E-01   -0.115941E-01
    120.00    0.136812E-02    0.112768E-01    0.868551E-02    0.259127E-02
    100.00    0.112373E-02    0.110324E-01    0.701537E-02    0.401703E-02
     80.00    0.890674E-03    0.107993E-01    0.540450E-02    0.539485E-02
     60.00    0.665461E-03    0.105741E-01    0.385916E-02    0.671496E-02
     40.00    0.443371E-03    0.103520E-01    0.239275E-02    0.795928E-02
     20.00    0.221683E-03    0.101303E-01    0.104276E-02    0.908759E-02
     10.00    0.110842E-03    0.100195E-01    0.444568E-03    0.957494E-02 (used)
   ------------------------------------------------------------------------

         :::::::::::::::::::::::::::::::::::::::::::::::::::::
         ::                  THERMODYNAMIC                  ::
         :::::::::::::::::::::::::::::::::::::::::::::::::::::
         :: total free energy          -9.014728773698 Eh   ::
         ::.................................................::
         :: total energy               -9.024303713664 Eh   ::
         :: zero point energy           0.009908666475 Eh   ::
         :: G(RRHO) w/o ZPVE           -0.000333726509 Eh   ::
         :: G(RRHO) contrib.            0.009574939966 Eh   ::
         :::::::::::::::::::::::::::::::::::::::::::::::::::::

           -------------------------------------------------
          | TOTAL ENERGY               -9.024303713664 Eh   |
          | TOTAL ENTHALPY             -9.014284205675 Eh   |
          | TOTAL FREE ENERGY          -9.014728773698 Eh   |
          | GRADIENT NORM               0.000320854012 Eh/Î± |
          | HOMO-LUMO GAP               7.143398679554 eV   |
           -------------------------------------------------

 * finished run on 2020/05/12 at 11:44:40.917
