 Gaussian 16, Revision B.01,

 --------------------------------------------------------
 #P M062X/cc-pvtz nosymm opt(noeigentest) optcyc=120 freq
 --------------------------------------------------------

 -----
 Title
 -----
 Symbolic Z-matrix:
 Charge =  0 Multiplicity = 1

 SCF Done:  E(RM062X) =  -230.868288518     A.U. after   13 cycles
 SCF Done:  E(RM062X) =  -230.868586366     A.U. after   11 cycles
 SCF Done:  E(RM062X) =  -230.866858464     A.U. after   12 cycles
 SCF Done:  E(RM062X) =  -230.868653966     A.U. after    9 cycles
 SCF Done:  E(RM062X) =  -230.868656930     A.U. after    8 cycles
 Optimization completed.
    -- Stationary point found.
 Normal termination of Gaussian 16 at Sat Sep 26 00:38:47 2020.

 -------------------------------------------------------------------
 #P Geom=AllCheck Guess=TCheck SCRF=Check GenChk RM062X/CC-pVTZ Freq
 -------------------------------------------------------------------

 Structure from the checkpoint file:  "input.chk"
 -----
 Title
 -----
 Charge =  0 Multiplicity = 1

 SCF Done:  E(RM062X) =  -230.868656930     A.U. after    1 cycles

  Exact polarizability:  91.624   0.000  34.091 -45.811  -0.000  91.266
 Approx polarizability: 111.852   0.000  43.470 -53.127  -0.000 110.885

                      1                      2                      3
                      A                      A                      A
 Frequencies --    120.0349               127.9487               246.1429
 Red. masses --      4.0255                 3.9309                 4.2888
 Frc consts  --      0.0342                 0.0379                 0.1531
 IR Inten    --      1.8681                 1.4632                 0.0000

                      4                      5                      6
                      A                      A                      A
 Frequencies --    355.6420               521.6230               531.3656
 Red. masses --      3.1820                 4.5527                 5.8607
 Frc consts  --      0.2371                 0.7298                 0.9750
 IR Inten    --      0.0000                21.1440                10.8756

                      7                      8                      9
                      A                      A                      A
 Frequencies --    532.6194               697.3957               699.3235
 Red. masses --      7.0139                 1.2959                 1.3118
 Frc consts  --      1.1723                 0.3714                 0.3780
 IR Inten    --      0.0000                 0.0016                84.7268

                     10                     11                     12
                      A                      A                      A
 Frequencies --    721.2635               722.0269               888.9722
 Red. masses --      1.2843                 1.2813                 2.0773
 Frc consts  --      0.3936                 0.3936                 0.9672
 IR Inten    --      0.0088                80.7522                 0.0000

                     13                     14                     15
                      A                      A                      A
 Frequencies --    987.1131              1032.1350              1043.0998
 Red. masses --      1.0851                 3.6337                 4.6121
 Frc consts  --      0.6230                 2.2807                 2.9567
 IR Inten    --     46.7271                 0.0000                13.5827

                     16                     17                     18
                      A                      A                      A
 Frequencies --   1285.9583              1325.4377              1694.8227
 Red. masses --      1.2717                 1.3215                 6.2818
 Frc consts  --      1.2390                 1.3678                10.6313
 IR Inten    --      0.9227                 0.0000                 0.0000

                     19                     20                     21
                      A                      A                      A
 Frequencies --   2238.9320              2256.5851              3194.0677
 Red. masses --      5.9244                 5.9194                 1.0938
 Frc consts  --     17.4974                17.7596                 6.5748
 IR Inten    --      0.0000                 0.9267                 0.0000

                     22                     23                     24
                      A                      A                      A
 Frequencies --   3200.7879              3486.3689              3486.8513
 Red. masses --      1.0855                 1.1654                 1.1645
 Frc consts  --      6.5523                 8.3461                 8.3418
 IR Inten    --      7.3001               190.2692                 0.0077

 - Thermochemistry -
 -------------------
 Temperature   298.150 Kelvin.  Pressure   1.00000 Atm.
 Atom     1 has atomic number  6 and mass  12.00000

 Molecular mass:    76.03130 amu.
 Principal axes and moments of inertia in atomic units:
                           1         2         3
     Eigenvalues --    38.347931231.322451269.67038
           X           -0.69608   0.71797   0.00000
           Y           -0.00000  -0.00000   1.00000
           Z            0.71797   0.69608   0.00000
 This molecule is an asymmetric top.
 Rotational symmetry number  1.
 Rotational temperatures (Kelvin)      2.25863     0.07034     0.06822
 Rotational constants (GHZ):          47.06228     1.46569     1.42142
 Zero-point vibrational energy     187792.9 (Joules/Mol)
                                   44.88358 (Kcal/Mol)
 Warning -- explicit consideration of   7 degrees of freedom as
           vibrations may cause significant error
 Vibrational temperatures:    172.70   184.09   354.14   511.69   750.50
          (Kelvin)            764.52   766.32  1003.40  1006.17  1037.74
                             1038.84  1279.03  1420.24  1485.01  1500.79
                             1850.21  1907.01  2438.47  3221.32  3246.72
                             4595.55  4605.22  5016.11  5016.80

 Zero-point correction=                           0.071527 (Hartree/Particle)
 Thermal correction to Energy=                    0.077816
 Thermal correction to Enthalpy=                  0.078760
 Thermal correction to Gibbs Free Energy=         0.042227
 Sum of electronic and zero-point Energies=           -230.797130
 Sum of electronic and thermal Energies=              -230.790841
 Sum of electronic and thermal Enthalpies=            -230.789897
 Sum of electronic and thermal Free Energies=         -230.826430

                     E (Thermal)             CV                S
                      KCal/Mol        Cal/Mol-Kelvin    Cal/Mol-Kelvin
 Total                   48.830             21.875             76.890
 Electronic               0.000              0.000              0.000
 Translational            0.889              2.981             38.901
 Rotational               0.889              2.981             25.597
 Vibrational             47.053             15.913             12.391
 Vibration     1          0.609              1.933              3.100
 Vibration     2          0.611              1.925              2.977
 Vibration     3          0.661              1.769              1.758
 Vibration     4          0.731              1.564              1.141
 Vibration     5          0.877              1.202              0.606
 Vibration     6          0.886              1.181              0.584
 Vibration     7          0.888              1.178              0.581

 Optimization completed.
    -- Stationary point found.
 Normal termination of Gaussian 16 at Sat Sep 26 00:42:05 2020.
 Gaussian 16:  ES64L-G16RevB.01 20-Dec-2017

 -----------------------------------------------
 #P CCSD(T)/aug-cc-pvtz geom=allcheck guess=read
 -----------------------------------------------

 Structure from the checkpoint file:  "input.chk"
 -----
 Title
 -----
 Charge =  0 Multiplicity = 1

                         Standard orientation:
 ---------------------------------------------------------------------
 Center     Atomic      Atomic             Coordinates (Angstroms)
 Number     Number       Type             X           Y           Z
 ---------------------------------------------------------------------
      1          6           0       -0.481941    0.463923    0.000000
      2          6           0        0.481939   -0.463915    0.000000
      3          6           0       -1.866902    0.141605    0.000000
      4          6           0        1.866900   -0.141596    0.000000
      5          1           0       -0.217716    1.514188    0.000000
      6          1           0        0.217715   -1.514180    0.000000
      7          6           0       -3.040926   -0.104786    0.000000
      8          6           0        3.040925    0.104787    0.000000
      9          1           0       -4.079307   -0.329868    0.000000
     10          1           0        4.079335    0.329742   -0.000000
 ---------------------------------------------------------------------

 SCF Done:  E(RHF) =  -229.466928166     A.U. after   12 cycles
 E2 =    -0.9237176042D+00 EUMP2 =    -0.23039064577051D+03
 CCSD(T)
 CCSD(T)= -0.23046350554D+03

 The electronic state is 1-A.
 Alpha  occ. eigenvalues --  -11.27709 -11.27543 -11.24709 -11.24708 -11.23889
 Alpha  occ. eigenvalues --  -11.23888  -1.12572  -1.05234  -1.00432  -0.87960
 Alpha  occ. eigenvalues --   -0.73889  -0.73580  -0.69299  -0.66135  -0.57866
 Alpha  occ. eigenvalues --   -0.49953  -0.43135  -0.41041  -0.40445  -0.33147
 Alpha virt. eigenvalues --    0.02851   0.02923   0.03939   0.04406   0.05807
 Alpha virt. eigenvalues --    0.08111   0.08196   0.08325   0.09494   0.09557
 Alpha virt. eigenvalues --    0.09845   0.11138   0.11436   0.11711   0.12303

 Mulliken charges:
               1
     1  C   -0.685210
     2  C   -0.685232
     3  C    1.407360
     4  C    1.407371
     5  H    0.035729
     6  H    0.035722
     7  C   -1.245383
     8  C   -1.245372
     9  H    0.487508
    10  H    0.487508
 Sum of Mulliken charges =  -0.00000

 Dipole moment (field-independent basis, Debye):
    X=              0.0000    Y=             -0.0001    Z=             -0.0000  Tot=              0.0001
 Quadrupole moment (field-independent basis, Debye-Ang):
   XX=            -24.9041   YY=            -34.4676   ZZ=            -38.8767
   XY=              2.3066   XZ=             -0.0000   YZ=             -0.0000

 DQ=-230.4111804\CCSD=-230.4102875\CCSD(T)=-230.4635055\RMSD=3.306e-09\
 Normal termination of Gaussian 16 at Sat Sep 26 02:56:06 2020.
