   * xtb version 6.2.2 (9d81278992624c895f80dd42a50cac0aa55982e2) compiled by '@Darwin' on 04/03/2020
          program call               : xtb --input H3C1_0_S_1.input H3C1_0_S_1.xyz --ohess --molden --namespace H3C1_0_S_1 output.out
          number of atoms            :                     4
          number of electrons        :                     7
          charge                     :                     0
          spin                       :                   0.5

   ID    Z sym.   atoms
    1    6 C      1
    2    1 H      2-4

          :  Hamiltonian                  GFN2-xTB          :
 * total energy  :    -3.5516608 Eh     change       -0.4873568E-10 Eh
 * total energy  :    -3.5595414 Eh     change       -0.7880565E-02 Eh
 * total energy  :    -3.5620750 Eh     change       -0.2533632E-02 Eh
 * total energy  :    -3.5626478 Eh     change       -0.5727879E-03 Eh
 * total energy  :    -3.5629300 Eh     change       -0.2822527E-03 Eh
 * total energy  :    -3.5629680 Eh     change       -0.3800783E-04 Eh
 * total energy  :    -3.5629701 Eh     change       -0.2026773E-05 Eh
   *** GEOMETRY OPTIMIZATION CONVERGED AFTER 7 ITERATIONS ***

 final structure:
================
4
 xtb: 6.2.2 (9d81278992624c895f80dd42a50cac0aa55982e2)
C        -0.00000242071912    0.00000148955761   -0.00173271298963
H         1.04219593163201   -0.22976382407260   -0.00107503741990
H        -0.72007861030071   -0.78768707670241    0.00090442820222
H        -0.32211490061218    1.01744941121740    0.00190232220731

          :  Hamiltonian                  GFN2-xTB          :
         :: gradient norm              0.000291276695 Eh/a0 ::
         :: HOMO-LUMO gap             12.538647691206 eV    ::
         :: SCC energy                -3.623032836174 Eh    ::
         :: -> dispersion             -0.000465195122 Eh    ::
         :: repulsion energy           0.060062773465 Eh    ::

    * Orbital Energies and Occupations

         #    Occupation            Energy/Eh            Energy/eV
      -------------------------------------------------------------
         1        2.0000           -0.5707109             -15.5298
         2        2.0000           -0.4734028             -12.8819
         3        2.0000           -0.4734028             -12.8819
         4        1.0000           -0.3316816              -9.0255 (HOMO)
Molecule has the following symmetry elements: (C3) 3*(C2) (S3) 4*(sigma)
It seems to be the D3h point group
         5                          0.1291053               3.5131 (LUMO)
         6                          0.2995146               8.1502
         7                          0.2995146               8.1502
      -------------------------------------------------------------
                  HL-Gap            0.4607868 Eh           12.5386 eV

     #   Z        covCN         q      C6AA      Î±(0)
     1   6 C      2.780    -0.151    31.878     9.248
     2   1 H      0.927     0.050     2.315     2.379
     3   1 H      0.927     0.050     2.315     2.379
     4   1 H      0.927     0.050     2.315     2.379

Wiberg/Mayer (AO) data.
largest (>0.10) Wiberg bond orders for each atom
          total WBO             WBO to atom ...

molecular dipole:
                 x           y           z       tot (Debye)
 q only:        0.000      -0.000       0.001
   full:        0.000      -0.000       0.002       0.005

 projected vibrational frequencies (cm-1)
eigval :       -0.00    -0.00    -0.00    -0.00    -0.00     0.00
eigval :      490.18  1351.21  1351.27  3155.19  3247.65  3247.72

   temp. (K)  partition function   enthalpy   heat capacity  entropy
                                   cal/mol     cal/K/mol   cal/K/mol   J/K/mol
  10.00  VIB   1.00                    0.000      0.000     -0.000
         ROT  0.250                   29.809      2.981      0.225
         INT  0.250                   29.809      2.981      0.225
         TR   0.346E+24               49.681      4.968     17.196
         TOT                          79.4904     7.9490    17.4209    72.8892

       T/K    H(0)-H(T)+PV         H(T)/Eh          T*S/Eh         G(T)/Eh
   ------------------------------------------------------------------------
    298.15    0.402649E-02    0.332855E-01    0.214415E-01    0.118441E-01
    120.00    0.152639E-02    0.307854E-01    0.711503E-02    0.236704E-01
    100.00    0.126869E-02    0.305277E-01    0.569438E-02    0.248333E-01
     80.00    0.101374E-02    0.302728E-01    0.432804E-02    0.259447E-01
     60.00    0.760074E-03    0.300191E-01    0.302718E-02    0.269919E-01
     40.00    0.506704E-03    0.297657E-01    0.181272E-02    0.279530E-01
     20.00    0.253352E-03    0.295124E-01    0.730800E-03    0.287816E-01
     10.00    0.126676E-03    0.293857E-01    0.277620E-03    0.291081E-01 (used)
   ------------------------------------------------------------------------

         :::::::::::::::::::::::::::::::::::::::::::::::::::::
         ::                  THERMODYNAMIC                  ::
         :::::::::::::::::::::::::::::::::::::::::::::::::::::
         :: total free energy          -3.533861973094 Eh   ::
         ::.................................................::
         :: total energy               -3.562970060943 Eh   ::
         :: zero point energy           0.029259032195 Eh   ::
         :: G(RRHO) w/o ZPVE           -0.000150944346 Eh   ::
         :: G(RRHO) contrib.            0.029108087849 Eh   ::
         :::::::::::::::::::::::::::::::::::::::::::::::::::::

           -------------------------------------------------
          | TOTAL ENERGY               -3.562970060943 Eh   |
          | TOTAL ENTHALPY             -3.533584352732 Eh   |
          | TOTAL FREE ENERGY          -3.533861973094 Eh   |
          | GRADIENT NORM               0.000291276385 Eh/Î± |
          | HOMO-LUMO GAP              12.538647742910 eV   |
           -------------------------------------------------

 * finished run on 2020/05/12 at 11:44:24.425
