   * xtb version 6.2.2 (9d81278992624c895f80dd42a50cac0aa55982e2) compiled by '@Darwin' on 04/03/2020
          program call               : xtb --input H2C2_1_S_0.input H2C2_1_S_0.xyz --ohess --molden --namespace H2C2_1_S_0 output.out
          number of atoms            :                     4
          number of electrons        :                    10
          charge                     :                     0
          spin                       :                   0.0

   ID    Z sym.   atoms
    1    6 C      1, 2
    2    1 H      3, 4

          :  Hamiltonian                  GFN2-xTB          :
 * total energy  :    -5.0668964 Eh     change       -0.9564465E-09 Eh
 * total energy  :    -5.1681955 Eh     change       -0.1012990E+00 Eh
 * total energy  :    -5.1833549 Eh     change       -0.1515939E-01 Eh
 * total energy  :    -5.1973484 Eh     change       -0.1399359E-01 Eh
 * total energy  :    -5.2030300 Eh     change       -0.5681518E-02 Eh
 * total energy  :    -5.2048169 Eh     change       -0.1786935E-02 Eh
 * total energy  :    -5.2063383 Eh     change       -0.1521385E-02 Eh
 * total energy  :    -5.2067293 Eh     change       -0.3910398E-03 Eh
 * total energy  :    -5.2067689 Eh     change       -0.3954107E-04 Eh
 * total energy  :    -5.2067236 Eh     change        0.4528206E-04 Eh
 * total energy  :    -5.2067666 Eh     change       -0.4303164E-04 Eh
 * total energy  :    -5.2067715 Eh     change       -0.4897435E-05 Eh
   *** GEOMETRY OPTIMIZATION CONVERGED AFTER 12 ITERATIONS ***

 final structure:
================
4
 xtb: 6.2.2 (9d81278992624c895f80dd42a50cac0aa55982e2)
C        -0.59328112220307   -0.00737311556327    0.06164869917695
C         0.59331216889654    0.00689205515729    0.18907843763299
H        -1.63691918508577   -0.02132521027002   -0.04760483303002
H         1.63688813839230    0.02180627067600    0.29910669622007

          :  Hamiltonian                  GFN2-xTB          :
         :: gradient norm              0.000650394475 Eh/a0 ::
         :: HOMO-LUMO gap              7.291885757623 eV    ::
         :: SCC energy                -5.368235442265 Eh    ::
         :: -> dispersion             -0.000793788157 Eh    ::
         :: repulsion energy           0.161463948019 Eh    ::

    * Orbital Energies and Occupations

         #    Occupation            Energy/Eh            Energy/eV
      -------------------------------------------------------------
         1        2.0000           -0.6059393             -16.4884
         2        2.0000           -0.5326277             -14.4935
         3        2.0000           -0.4772539             -12.9867
         4        2.0000           -0.4230967             -11.5130
         5        2.0000           -0.4230966             -11.5130 (HOMO)
         6                         -0.1551247              -4.2212 (LUMO)
         7                         -0.1551237              -4.2211
         8                          0.0770287               2.0961
         9                          0.3439663               9.3598
        10                          1.4595336              39.7159
      -------------------------------------------------------------
                  HL-Gap            0.2679719 Eh            7.2919 eV

     #   Z        covCN         q      C6AA      Î±(0)
     1   6 C      1.909    -0.080    33.281     9.317
     2   6 C      1.909    -0.080    33.281     9.317
     3   1 H      0.928     0.080     1.984     2.202
     4   1 H      0.928     0.080     1.984     2.202

Wiberg/Mayer (AO) data.
largest (>0.10) Wiberg bond orders for each atom
          total WBO             WBO to atom ...

molecular dipole:
                 x           y           z       tot (Debye)
 q only:       -0.000       0.000       0.000
   full:       -0.000       0.000       0.000       0.001

   temp. (K)  partition function   enthalpy   heat capacity  entropy
                                   cal/mol     cal/K/mol   cal/K/mol   J/K/mol
  10.00  VIB   1.00                    0.000      0.000     -0.001
         ROT   2.89                   19.873      1.987      4.096
         INT   2.89                   19.873      1.987      4.095
         TR   0.790E+24               49.681      4.968     18.832
         TOT                          69.5541     6.9554    22.9275    95.9288

       T/K    H(0)-H(T)+PV         H(T)/Eh          T*S/Eh         G(T)/Eh
   ------------------------------------------------------------------------
    298.15    0.389996E-02    0.303679E-01    0.229233E-01    0.744458E-02
    120.00    0.134300E-02    0.278109E-01    0.770368E-02    0.201073E-01
    100.00    0.111234E-02    0.275803E-01    0.620963E-02    0.213707E-01
     80.00    0.887401E-03    0.273553E-01    0.476706E-02    0.225883E-01
     60.00    0.665084E-03    0.271330E-01    0.338351E-02    0.237495E-01
     40.00    0.443366E-03    0.269113E-01    0.207594E-02    0.248354E-01
     20.00    0.221683E-03    0.266896E-01    0.884358E-03    0.258053E-01
     10.00    0.110842E-03    0.265788E-01    0.365374E-03    0.262134E-01 (used)
   ------------------------------------------------------------------------

         :::::::::::::::::::::::::::::::::::::::::::::::::::::
         ::                  THERMODYNAMIC                  ::
         :::::::::::::::::::::::::::::::::::::::::::::::::::::
         :: total free energy          -5.180558098907 Eh   ::
         ::.................................................::
         :: total energy               -5.206771510249 Eh   ::
         :: zero point energy           0.026467943474 Eh   ::
         :: G(RRHO) w/o ZPVE           -0.000254532132 Eh   ::
         :: G(RRHO) contrib.            0.026213411342 Eh   ::
         :::::::::::::::::::::::::::::::::::::::::::::::::::::

           -------------------------------------------------
          | TOTAL ENERGY               -5.206771510249 Eh   |
          | TOTAL ENTHALPY             -5.180192725262 Eh   |
          | TOTAL FREE ENERGY          -5.180558098907 Eh   |
          | GRADIENT NORM               0.000650389765 Eh/Î± |
          | HOMO-LUMO GAP               7.291885770027 eV   |
           -------------------------------------------------

 * finished run on 2020/05/12 at 11:44:29.486
