   * xtb version 6.2.2 (9d81278992624c895f80dd42a50cac0aa55982e2) compiled by '@Darwin' on 04/03/2020
          program call               : xtb --input C4N1_26_S_3.input C4N1_26_S_3.xyz --ohess --molden --namespace C4N1_26_S_3 output.out
          number of atoms            :                     5
          number of electrons        :                    21
          charge                     :                     0
          spin                       :                   1.5

   ID    Z sym.   atoms
    1    6 C      1-3, 5
    2    7 N      4

          :  Hamiltonian                  GFN2-xTB          :
 * total energy  :   -10.8903455 Eh     change        0.7631780E-09 Eh
 * total energy  :   -10.9275714 Eh     change       -0.3722595E-01 Eh
 * total energy  :   -10.9486965 Eh     change       -0.2112509E-01 Eh
 * total energy  :   -10.9600401 Eh     change       -0.1134358E-01 Eh
 * total energy  :   -10.9659412 Eh     change       -0.5901085E-02 Eh
 * total energy  :   -10.9771986 Eh     change       -0.1125737E-01 Eh
 * total energy  :   -10.9886606 Eh     change       -0.1146206E-01 Eh
 * total energy  :   -10.9940837 Eh     change       -0.5423080E-02 Eh
 * total energy  :   -10.9964987 Eh     change       -0.2414945E-02 Eh
 * total energy  :   -10.9978731 Eh     change       -0.1374412E-02 Eh
 * total energy  :   -11.0018073 Eh     change       -0.1701213E-02 Eh
 * total energy  :   -11.0020460 Eh     change       -0.2386933E-03 Eh
 * total energy  :   -11.0022062 Eh     change       -0.1601748E-03 Eh
 * total energy  :   -11.0022889 Eh     change       -0.8266759E-04 Eh
 * total energy  :   -11.0023470 Eh     change       -0.5814112E-04 Eh
 * total energy  :   -11.0023705 Eh     change       -0.2350371E-04 Eh
 * total energy  :   -11.0023795 Eh     change       -0.9029298E-05 Eh
 * total energy  :   -11.0023855 Eh     change       -0.6000916E-05 Eh
 * total energy  :   -11.0023899 Eh     change       -0.4372518E-05 Eh
   *** GEOMETRY OPTIMIZATION CONVERGED AFTER 21 ITERATIONS ***

 final structure:
================
5
 xtb: 6.2.2 (9d81278992624c895f80dd42a50cac0aa55982e2)
C         1.89401965842476   -0.17180102330602   -0.06193259125133
C         0.62666801240158   -0.10544302791024   -0.02439703670929
C        -1.48548926164293    0.21574010020492    0.05445574375674
N        -0.40738842250168    0.94036372360331    0.04350553092882
C        -0.62780998668172   -0.87885977259197   -0.01163164672493

          :  Hamiltonian                  GFN2-xTB          :
         :: gradient norm              0.000964922059 Eh/a0 ::
         :: HOMO-LUMO gap              1.918913056698 eV    ::
         :: SCC energy               -11.171984503468 Eh    ::
         :: -> dispersion             -0.002903372960 Eh    ::
         :: repulsion energy           0.169594592829 Eh    ::

    * Orbital Energies and Occupations

         #    Occupation            Energy/Eh            Energy/eV
      -------------------------------------------------------------
         1        2.0000           -0.7522041             -20.4685
         2        2.0000           -0.6852612             -18.6469
         3        2.0000           -0.6414901             -17.4558
         4        2.0000           -0.6268493             -17.0574
         5        2.0000           -0.5783147             -15.7367
         6        2.0000           -0.5712757             -15.5452
         7        2.0000           -0.5099136             -13.8755
         8        2.0000           -0.4704269             -12.8010
         9        2.0000           -0.4663245             -12.6893
        10        1.0000           -0.4237774             -11.5316
        11        1.0000           -0.4124453             -11.2232
        12        1.0000           -0.4099326             -11.1548 (HOMO)
        13                         -0.3394139              -9.2359 (LUMO)
        14                         -0.3039286              -8.2703
        15                         -0.1803257              -4.9069
        16                         -0.0107482              -0.2925
        17                          0.1081608               2.9432
        18                          0.1900415               5.1713
        19                          0.4217969              11.4777
        20                          0.8313979              22.6235
      -------------------------------------------------------------
                  HL-Gap            0.0705187 Eh            1.9189 eV

     #   Z        covCN         q      C6AA      Î±(0)
     1   6 C      0.982    -0.101    39.137    10.508
     2   6 C      3.093     0.132    25.015     8.198
     3   6 C      2.118     0.042    29.760     8.816
     4   7 N      2.483    -0.068    22.619     7.063
     5   6 C      2.625    -0.005    28.132     8.675

Wiberg/Mayer (AO) data.
largest (>0.10) Wiberg bond orders for each atom
          total WBO             WBO to atom ...

molecular dipole:
                 x           y           z       tot (Debye)
 q only:       -0.266      -0.089       0.005
   full:       -0.430      -0.031       0.011       1.095

 projected vibrational frequencies (cm-1)
eigval :       -0.00    -0.00     0.00     0.00     0.00     0.00
eigval :      261.12   347.74   428.42   434.78   512.15   904.85
eigval :     1076.55  1481.08  1761.66

   temp. (K)  partition function   enthalpy   heat capacity  entropy
                                   cal/mol     cal/K/mol   cal/K/mol   J/K/mol
  10.00  VIB   1.00                    0.000      0.000     -0.004
         ROT   203.                   29.809      2.981     13.538
         INT   203.                   29.809      2.981     13.534
         TR   0.290E+25               49.681      4.968     21.419
         TOT                          79.4904     7.9490    34.9534   146.2449

       T/K    H(0)-H(T)+PV         H(T)/Eh          T*S/Eh         G(T)/Eh
   ------------------------------------------------------------------------
    298.15    0.547408E-02    0.218959E-01    0.319883E-01   -0.100925E-01
    120.00    0.162686E-02    0.180487E-01    0.105961E-01    0.745254E-02
    100.00    0.131534E-02    0.177371E-01    0.854654E-02    0.919060E-02
     80.00    0.102933E-02    0.174511E-01    0.658237E-02    0.108688E-01
     60.00    0.762847E-03    0.171847E-01    0.470712E-02    0.124775E-01
     40.00    0.506810E-03    0.169286E-01    0.293061E-02    0.139980E-01
     20.00    0.253352E-03    0.166752E-01    0.128964E-02    0.153855E-01
     10.00    0.126676E-03    0.165485E-01    0.557017E-03    0.159915E-01 (used)
   ------------------------------------------------------------------------

         :::::::::::::::::::::::::::::::::::::::::::::::::::::
         ::                  THERMODYNAMIC                  ::
         :::::::::::::::::::::::::::::::::::::::::::::::::::::
         :: total free energy         -10.986398435585 Eh   ::
         ::.................................................::
         :: total energy              -11.002389899129 Eh   ::
         :: zero point energy           0.016421805010 Eh   ::
         :: G(RRHO) w/o ZPVE           -0.000430341466 Eh   ::
         :: G(RRHO) contrib.            0.015991463544 Eh   ::
         :::::::::::::::::::::::::::::::::::::::::::::::::::::

           -------------------------------------------------
          | TOTAL ENERGY              -11.002389899129 Eh   |
          | TOTAL ENTHALPY            -10.985841418103 Eh   |
          | TOTAL FREE ENERGY         -10.986398435585 Eh   |
          | GRADIENT NORM               0.000964662317 Eh/Î± |
          | HOMO-LUMO GAP               1.918912098249 eV   |
           -------------------------------------------------

 * finished run on 2020/05/12 at 11:44:09.857
