   * xtb version 6.2.2 (9d81278992624c895f80dd42a50cac0aa55982e2) compiled by '@Darwin' on 04/03/2020
          program call               : xtb --input H1C3N1_22_S_2.input H1C3N1_22_S_2.xyz --ohess --molden --namespace H1C3N1_22_S_2 output.out
          number of atoms            :                     5
          number of electrons        :                    18
          charge                     :                     0
          spin                       :                   1.0

   ID    Z sym.   atoms
    1    7 N      1
    2    6 C      2-4
    3    1 H      5

          :  Hamiltonian                  GFN2-xTB          :
 * total energy  :    -9.4107173 Eh     change       -0.5498677E-09 Eh
 * total energy  :    -9.4783309 Eh     change       -0.6761359E-01 Eh
 * total energy  :    -9.5032158 Eh     change       -0.2488486E-01 Eh
 * total energy  :    -9.5254770 Eh     change       -0.2226124E-01 Eh
 * total energy  :    -9.5309422 Eh     change       -0.5465182E-02 Eh
 * total energy  :    -9.5365656 Eh     change       -0.5623437E-02 Eh
 * total energy  :    -9.5391585 Eh     change       -0.2592924E-02 Eh
 * total energy  :    -9.5403671 Eh     change       -0.1208591E-02 Eh
 * total energy  :    -9.5408755 Eh     change       -0.5083438E-03 Eh
 * total energy  :    -9.5412373 Eh     change       -0.3618503E-03 Eh
 * total energy  :    -9.5413129 Eh     change       -0.7553906E-04 Eh
 * total energy  :    -9.5413479 Eh     change       -0.3498679E-04 Eh
 * total energy  :    -9.5413587 Eh     change       -0.1088966E-04 Eh
 * total energy  :    -9.5413671 Eh     change       -0.8316375E-05 Eh
 * total energy  :    -9.5413853 Eh     change       -0.1825080E-04 Eh
 * total energy  :    -9.5413892 Eh     change       -0.3907389E-05 Eh
   *** GEOMETRY OPTIMIZATION CONVERGED AFTER 16 ITERATIONS ***

 final structure:
================
5
 xtb: 6.2.2 (9d81278992624c895f80dd42a50cac0aa55982e2)
N         1.82735805444159   -0.48168400493810   -0.01702493319247
C         0.70918677502065   -0.00906483580298    0.00790450234415
C        -0.74176663594118   -0.03788689550467   -0.00909200325097
C        -0.17858435807843    1.16936967057623    0.11080128660970
H        -1.61619383544264   -0.64073393433048   -0.09258985251040

          :  Hamiltonian                  GFN2-xTB          :
         :: gradient norm              0.000770372471 Eh/a0 ::
         :: HOMO-LUMO gap              1.985379908737 eV    ::
         :: SCC energy                -9.712851410385 Eh    ::
         :: -> dispersion             -0.002071073733 Eh    ::
         :: repulsion energy           0.171462136928 Eh    ::

    * Orbital Energies and Occupations

         #    Occupation            Energy/Eh            Energy/eV
      -------------------------------------------------------------
         1        2.0000           -0.7090163             -19.2933
         2        2.0000           -0.6609660             -17.9858
         3        2.0000           -0.6024504             -16.3935
         4        2.0000           -0.5612262             -15.2717
         5        2.0000           -0.5399477             -14.6927
         6        2.0000           -0.5144733             -13.9995
         7        1.9903           -0.4488531             -12.2139
         8        1.6524           -0.4450516             -12.1105
         9        1.3573           -0.4438957             -12.0790
        10        1.0000           -0.3524494              -9.5906 (HOMO)
        11                         -0.2794883              -7.6053 (LUMO)
        12                         -0.2161698              -5.8823
        13                         -0.0105763              -0.2878
        14                          0.0372868               1.0146
        15                          0.1642519               4.4695
        16                          0.6059149              16.4878
        17                          0.8306112              22.6021
      -------------------------------------------------------------
                  HL-Gap            0.0729611 Eh            1.9854 eV

     #   Z        covCN         q      C6AA      Î±(0)
     1   7 N      0.911    -0.244    26.360     7.426
     2   6 C      2.868     0.175    24.247     8.072
     3   6 C      2.887     0.021    27.535     8.603
     4   6 C      1.959    -0.052    32.469     9.202
     5   1 H      0.927     0.100     1.786     2.090

Wiberg/Mayer (AO) data.
largest (>0.10) Wiberg bond orders for each atom
          total WBO             WBO to atom ...

molecular dipole:
                 x           y           z       tot (Debye)
 q only:       -0.925      -0.018      -0.018
   full:       -1.331      -0.164      -0.038       3.410

 projected vibrational frequencies (cm-1)
eigval :       -0.00    -0.00    -0.00     0.00     0.00     0.00
eigval :      242.47   310.53   412.35   604.99   754.21   901.46
eigval :     1349.03  1797.12  3183.03

   temp. (K)  partition function   enthalpy   heat capacity  entropy
                                   cal/mol     cal/K/mol   cal/K/mol   J/K/mol
  10.00  VIB   1.00                    0.000      0.000     -0.004
         ROT   112.                   29.809      2.981     12.362
         INT   112.                   29.809      2.981     12.358
         TR   0.217E+25               49.681      4.968     20.838
         TOT                          79.4904     7.9490    33.1954   138.8894

       T/K    H(0)-H(T)+PV         H(T)/Eh          T*S/Eh         G(T)/Eh
   ------------------------------------------------------------------------
    298.15    0.529290E-02    0.270612E-01    0.309289E-01   -0.386767E-02
    120.00    0.163491E-02    0.234032E-01    0.102738E-01    0.131294E-01
    100.00    0.132352E-02    0.230919E-01    0.827800E-02    0.148139E-01
     80.00    0.103422E-02    0.228026E-01    0.636456E-02    0.164380E-01
     60.00    0.764286E-03    0.225326E-01    0.454081E-02    0.179918E-01
     40.00    0.506905E-03    0.222752E-01    0.281870E-02    0.194565E-01
     20.00    0.253352E-03    0.220217E-01    0.123362E-02    0.207881E-01
     10.00    0.126676E-03    0.218950E-01    0.529002E-03    0.213660E-01 (used)
   ------------------------------------------------------------------------

         :::::::::::::::::::::::::::::::::::::::::::::::::::::
         ::                  THERMODYNAMIC                  ::
         :::::::::::::::::::::::::::::::::::::::::::::::::::::
         :: total free energy          -9.520023206942 Eh   ::
         ::.................................................::
         :: total energy               -9.541389220245 Eh   ::
         :: zero point energy           0.021768338956 Eh   ::
         :: G(RRHO) w/o ZPVE           -0.000402325652 Eh   ::
         :: G(RRHO) contrib.            0.021366013304 Eh   ::
         :::::::::::::::::::::::::::::::::::::::::::::::::::::

           -------------------------------------------------
          | TOTAL ENERGY               -9.541389220245 Eh   |
          | TOTAL ENTHALPY             -9.519494205274 Eh   |
          | TOTAL FREE ENERGY          -9.520023206942 Eh   |
          | GRADIENT NORM               0.000770115394 Eh/Î± |
          | HOMO-LUMO GAP               1.985371264355 eV   |
           -------------------------------------------------

 * finished run on 2020/05/12 at 11:44:59.286
