   * xtb version 6.2.2 (9d81278992624c895f80dd42a50cac0aa55982e2) compiled by '@Darwin' on 04/03/2020
          program call               : xtb --input H3C1N1_2_S_0.input H3C1N1_2_S_0.xyz --ohess --molden --namespace H3C1N1_2_S_0 output.out
          number of atoms            :                     5
          number of electrons        :                    12
          charge                     :                     0
          spin                       :                   0.0

   ID    Z sym.   atoms
    1    6 C      1
    2    7 N      2
    3    1 H      3-5

          :  Hamiltonian                  GFN2-xTB          :
 * total energy  :    -6.4039948 Eh     change        0.8329479E-09 Eh
 * total energy  :    -6.4065906 Eh     change       -0.2595817E-02 Eh
 * total energy  :    -6.4070473 Eh     change       -0.4567231E-03 Eh
 * total energy  :    -6.4070820 Eh     change       -0.3464133E-04 Eh
 * total energy  :    -6.4070917 Eh     change       -0.9763760E-05 Eh
 * total energy  :    -6.4083175 Eh     change       -0.1225818E-02 Eh
 * total energy  :    -6.4122135 Eh     change       -0.3896017E-02 Eh
 * total energy  :    -6.4189477 Eh     change       -0.6734200E-02 Eh
 * total energy  :    -6.4374217 Eh     change       -0.1847396E-01 Eh
 * total energy  :    -6.4521602 Eh     change       -0.1473850E-01 Eh
 * total energy  :    -6.4640739 Eh     change       -0.1191367E-01 Eh
 * total energy  :    -6.4713674 Eh     change       -0.7293575E-02 Eh
 * total energy  :    -6.4737812 Eh     change       -0.2413770E-02 Eh
 * total energy  :    -6.4750875 Eh     change       -0.1306299E-02 Eh
 * total energy  :    -6.4751958 Eh     change       -0.1082485E-03 Eh
 * total energy  :    -6.4752676 Eh     change       -0.7183160E-04 Eh
 * total energy  :    -6.4752681 Eh     change       -0.5134187E-06 Eh
 * total energy  :    -6.4752699 Eh     change       -0.1813701E-05 Eh
   *** GEOMETRY OPTIMIZATION CONVERGED AFTER 18 ITERATIONS ***

 final structure:
================
5
 xtb: 6.2.2 (9d81278992624c895f80dd42a50cac0aa55982e2)
C         0.79502072012295   -0.50834684421402    0.02656871611136
N        -0.41566796782593   -0.04899418622602    0.00148825236774
H         1.51648924431218    0.33309177313613   -0.00943349505431
H        -0.71099175873156    0.93233688784668   -0.04780344850654
H        -1.18485023787764   -0.70808763054278    0.02917997508175

          :  Hamiltonian                  GFN2-xTB          :
         :: gradient norm              0.000419828863 Eh/a0 ::
         :: HOMO-LUMO gap              2.839527081676 eV    ::
         :: SCC energy                -6.559833546869 Eh    ::
         :: -> dispersion             -0.001034431902 Eh    ::
         :: repulsion energy           0.084563616274 Eh    ::

    * Orbital Energies and Occupations

         #    Occupation            Energy/Eh            Energy/eV
      -------------------------------------------------------------
         1        2.0000           -0.6390954             -17.3907
         2        2.0000           -0.5826096             -15.8536
         3        2.0000           -0.5543029             -15.0833
         4        2.0000           -0.4703767             -12.7996
         5        2.0000           -0.4630365             -12.5999
         6        2.0000           -0.3359457              -9.1415 (HOMO)
         7                         -0.2315950              -6.3020 (LUMO)
         8                          0.0199699               0.5434
         9                          0.1274933               3.4693
        10                          0.2854934               7.7687
        11                          0.4545701              12.3695
      -------------------------------------------------------------
                  HL-Gap            0.1043507 Eh            2.8395 eV

     #   Z        covCN         q      C6AA      Î±(0)
     1   6 C      1.832    -0.171    36.096     9.706
     2   7 N      2.630    -0.128    23.798     7.245
     3   1 H      0.922    -0.002     3.097     2.752
     4   1 H      0.859     0.135     1.505     1.922
     5   1 H      0.860     0.167     1.293     1.781

Wiberg/Mayer (AO) data.
largest (>0.10) Wiberg bond orders for each atom
          total WBO             WBO to atom ...

molecular dipole:
                 x           y           z       tot (Debye)
 q only:       -0.718       0.191      -0.012
   full:       -1.011       0.755      -0.040       3.208

 projected vibrational frequencies (cm-1)
eigval :       -0.00    -0.00     0.00     0.00     0.00     0.00
eigval :      790.24  1024.46  1031.09  1326.39  1468.57  1539.20
eigval :     2780.57  3114.68  3382.41

   temp. (K)  partition function   enthalpy   heat capacity  entropy
                                   cal/mol     cal/K/mol   cal/K/mol   J/K/mol
  10.00  VIB   1.00                    0.000      0.000     -0.000
         ROT   11.6                   29.809      2.981      7.856
         INT   11.6                   29.809      2.981      7.856
         TR   0.930E+24               49.681      4.968     19.157
         TOT                          79.4904     7.9490    27.0135   113.0243

       T/K    H(0)-H(T)+PV         H(T)/Eh          T*S/Eh         G(T)/Eh
   ------------------------------------------------------------------------
    298.15    0.394413E-02    0.414373E-01    0.258581E-01    0.155792E-01
    120.00    0.152043E-02    0.390136E-01    0.894239E-02    0.300712E-01
    100.00    0.126681E-02    0.387600E-01    0.722086E-02    0.315391E-01
     80.00    0.101341E-02    0.385066E-01    0.555058E-02    0.329560E-01
     60.00    0.760056E-03    0.382533E-01    0.394435E-02    0.343089E-01
     40.00    0.506704E-03    0.379999E-01    0.242418E-02    0.355757E-01
     20.00    0.253352E-03    0.377466E-01    0.103653E-02    0.367100E-01
     10.00    0.126676E-03    0.376199E-01    0.430487E-03    0.371894E-01 (used)
   ------------------------------------------------------------------------

         :::::::::::::::::::::::::::::::::::::::::::::::::::::
         ::                  THERMODYNAMIC                  ::
         :::::::::::::::::::::::::::::::::::::::::::::::::::::
         :: total free energy          -6.438080530947 Eh   ::
         ::.................................................::
         :: total energy               -6.475269923617 Eh   ::
         :: zero point energy           0.037493203410 Eh   ::
         :: G(RRHO) w/o ZPVE           -0.000303810740 Eh   ::
         :: G(RRHO) contrib.            0.037189392670 Eh   ::
         :::::::::::::::::::::::::::::::::::::::::::::::::::::

           -------------------------------------------------
          | TOTAL ENERGY               -6.475269923617 Eh   |
          | TOTAL ENTHALPY             -6.437650044191 Eh   |
          | TOTAL FREE ENERGY          -6.438080530947 Eh   |
          | GRADIENT NORM               0.000419828721 Eh/Î± |
          | HOMO-LUMO GAP               2.839527186749 eV   |
           -------------------------------------------------

 * finished run on 2020/05/12 at 11:44:28.452
