   * xtb version 6.2.2 (9d81278992624c895f80dd42a50cac0aa55982e2) compiled by '@Darwin' on 04/03/2020
          program call               : xtb --input C4N1_40_S_3.input C4N1_40_S_3.xyz --ohess --molden --namespace C4N1_40_S_3 output.out
          number of atoms            :                     5
          number of electrons        :                    21
          charge                     :                     0
          spin                       :                   1.5

   ID    Z sym.   atoms
    1    6 C      1, 3-5
    2    7 N      2

          :  Hamiltonian                  GFN2-xTB          :
 * total energy  :   -10.9146655 Eh     change       -0.3452811E-09 Eh
 * total energy  :   -10.9371512 Eh     change       -0.2248575E-01 Eh
 * total energy  :   -10.9585981 Eh     change       -0.2144691E-01 Eh
 * total energy  :   -10.9762080 Eh     change       -0.1760984E-01 Eh
 * total energy  :   -10.9954475 Eh     change       -0.1923955E-01 Eh
 * total energy  :   -10.9967150 Eh     change       -0.1267534E-02 Eh
 * total energy  :   -10.9969216 Eh     change       -0.2065988E-03 Eh
 * total energy  :   -10.9969623 Eh     change       -0.4065600E-04 Eh
 * total energy  :   -10.9970053 Eh     change       -0.4301475E-04 Eh
 * total energy  :   -10.9970107 Eh     change       -0.5403121E-05 Eh
 * total energy  :   -10.9970112 Eh     change       -0.4907711E-06 Eh
   *** GEOMETRY OPTIMIZATION CONVERGED AFTER 11 ITERATIONS ***

 final structure:
================
5
 xtb: 6.2.2 (9d81278992624c895f80dd42a50cac0aa55982e2)
C         1.16611969624362   -0.40271586820119    0.00904383029547
N         0.01391196486788   -0.84347860324641    0.47903798627956
C        -0.74321138382364    0.83517458882379   -0.24219835701236
C        -1.14439614875872   -0.46033829711825   -0.02520116815280
C         0.70757687147087    0.87135717974206   -0.22068329140987

          :  Hamiltonian                  GFN2-xTB          :
         :: gradient norm              0.000339804681 Eh/a0 ::
         :: HOMO-LUMO gap              0.501261843771 eV    ::
         :: SCC energy               -11.153860581035 Eh    ::
         :: -> dispersion             -0.002917101794 Eh    ::
         :: repulsion energy           0.156849342700 Eh    ::

    * Orbital Energies and Occupations

         #    Occupation            Energy/Eh            Energy/eV
      -------------------------------------------------------------
         1        2.0000           -0.7407797             -20.1576
         2        2.0000           -0.6750292             -18.3685
         3        2.0000           -0.6554998             -17.8371
         4        2.0000           -0.5886375             -16.0176
         5        2.0000           -0.5794296             -15.7671
         6        2.0000           -0.5709718             -15.5369
         7        2.0000           -0.5163413             -14.0504
         8        2.0000           -0.4509022             -12.2697
         9        2.0000           -0.4506802             -12.2636
        10        1.0000           -0.4082072             -11.1079
        11        1.0000           -0.4072979             -11.0831
        12        0.9999           -0.3879176             -10.5558 (HOMO)
        13        0.0001           -0.3694966             -10.0545 (LUMO)
        14                         -0.2494832              -6.7888
        15                         -0.2251567              -6.1268
        16                          0.1246516               3.3919
        17                          0.1860138               5.0617
        18                          0.3357407               9.1360
        19                          0.3984757              10.8431
        20                          0.5055894              13.7578
      -------------------------------------------------------------
                  HL-Gap            0.0184211 Eh            0.5013 eV

     #   Z        covCN         q      C6AA      Î±(0)
     1   6 C      2.000     0.007    30.867     8.972
     2   7 N      2.609    -0.010    21.463     6.881
     3   6 C      2.415    -0.002    28.643     8.725
     4   6 C      2.000     0.007    30.867     8.972
     5   6 C      2.415    -0.002    28.644     8.725

Wiberg/Mayer (AO) data.
largest (>0.10) Wiberg bond orders for each atom
          total WBO             WBO to atom ...

molecular dipole:
                 x           y           z       tot (Debye)
 q only:        0.000      -0.001      -0.008
   full:        0.000      -0.054       0.069       0.224

 projected vibrational frequencies (cm-1)
eigval :       -0.00    -0.00    -0.00     0.00     0.00     0.00
Molecule has the following symmetry elements: (sigma)
It seems to be the Cs point group
eigval :     -514.55   429.45   456.21   584.31  1053.43  1079.19
eigval :     1104.55  1303.65  1351.90

   temp. (K)  partition function   enthalpy   heat capacity  entropy
                                   cal/mol     cal/K/mol   cal/K/mol   J/K/mol
  10.00  VIB   1.00                    0.000      0.000     -0.001
         ROT   171.                   29.809      2.981     13.203
         INT   171.                   29.809      2.981     13.202
         TR   0.290E+25               49.681      4.968     21.419
         TOT                          79.4904     7.9490    34.6216   144.8569

       T/K    H(0)-H(T)+PV         H(T)/Eh          T*S/Eh         G(T)/Eh
   ------------------------------------------------------------------------
    298.15    0.458761E-02    0.213611E-01    0.303942E-01   -0.903314E-02
    120.00    0.154278E-02    0.183162E-01    0.104240E-01    0.789226E-02
    100.00    0.127436E-02    0.180478E-01    0.844216E-02    0.960565E-02
     80.00    0.101492E-02    0.177884E-01    0.652233E-02    0.112660E-01
     60.00    0.760161E-03    0.175336E-01    0.467199E-02    0.128616E-01
     40.00    0.506705E-03    0.172802E-01    0.290919E-02    0.143710E-01
     20.00    0.253352E-03    0.170268E-01    0.127903E-02    0.157478E-01
     10.00    0.126676E-03    0.169001E-01    0.551731E-03    0.163484E-01 (used)
   ------------------------------------------------------------------------

         :::::::::::::::::::::::::::::::::::::::::::::::::::::
         ::                  THERMODYNAMIC                  ::
         :::::::::::::::::::::::::::::::::::::::::::::::::::::
         :: total free energy         -10.980662809689 Eh   ::
         ::.................................................::
         :: total energy              -10.997011204589 Eh   ::
         :: zero point energy           0.016773449811 Eh   ::
         :: G(RRHO) w/o ZPVE           -0.000425054911 Eh   ::
         :: G(RRHO) contrib.            0.016348394900 Eh   ::
         :::::::::::::::::::::::::::::::::::::::::::::::::::::

           -------------------------------------------------
          | TOTAL ENERGY              -10.997011204589 Eh   |
          | TOTAL ENTHALPY            -10.980111078762 Eh   |
          | TOTAL FREE ENERGY         -10.980662809689 Eh   |
          | GRADIENT NORM               0.000340061254 Eh/Î± |
          | HOMO-LUMO GAP               0.501263075208 eV   |
           -------------------------------------------------

 * finished run on 2020/05/12 at 11:44:16.457
