   * xtb version 6.2.2 (9d81278992624c895f80dd42a50cac0aa55982e2) compiled by '@Darwin' on 04/03/2020
          program call               : xtb --input H3C2_1_S_3.input H3C2_1_S_3.xyz --ohess --molden --namespace H3C2_1_S_3 output.out
          number of atoms            :                     5
          number of electrons        :                    11
          charge                     :                     0
          spin                       :                   1.5

   ID    Z sym.   atoms
    1    6 C      1, 2
    2    1 H      3-5

          :  Hamiltonian                  GFN2-xTB          :
 * total energy  :    -5.4895119 Eh     change        0.4346674E-09 Eh
 * total energy  :    -5.4965757 Eh     change       -0.7063859E-02 Eh
 * total energy  :    -5.4975695 Eh     change       -0.9937563E-03 Eh
 * total energy  :    -5.4977341 Eh     change       -0.1646700E-03 Eh
 * total energy  :    -5.4977880 Eh     change       -0.5384771E-04 Eh
 * total energy  :    -5.4977924 Eh     change       -0.4438755E-05 Eh
   *** GEOMETRY OPTIMIZATION CONVERGED AFTER 6 ITERATIONS ***

 final structure:
================
5
 xtb: 6.2.2 (9d81278992624c895f80dd42a50cac0aa55982e2)
C        -0.54567324465911   -0.03432782468859    0.23517156433796
C         0.87937582004421   -0.28526942262671    0.38899772927007
H        -0.86233807885495    1.00624243493068    0.24569713591506
H        -1.07469779031345   -0.65000090878176   -0.48887203963916
H         1.60333329378331   -0.03664427883362   -0.38099338988393

          :  Hamiltonian                  GFN2-xTB          :
         :: gradient norm              0.000655748316 Eh/a0 ::
         :: HOMO-LUMO gap             12.002662770366 eV    ::
         :: SCC energy                -5.571204437441 Eh    ::
         :: -> dispersion             -0.001097586249 Eh    ::
         :: repulsion energy           0.073411992594 Eh    ::

    * Orbital Energies and Occupations

         #    Occupation            Energy/Eh            Energy/eV
      -------------------------------------------------------------
         1        2.0000           -0.6061466             -16.4941
         2        2.0000           -0.5474456             -14.8968
         3        2.0000           -0.4927515             -13.4084
         4        2.0000           -0.4828711             -13.1396
         5        1.0000           -0.3972414             -10.8095
         6        1.0000           -0.3138057              -8.5391
         7        1.0000           -0.3030648              -8.2468 (HOMO)
         8                          0.1380250               3.7559 (LUMO)
         9                          0.1759417               4.7876
        10                          0.2456220               6.6837
        11                          0.3058471               8.3225
      -------------------------------------------------------------
                  HL-Gap            0.4410897 Eh           12.0027 eV

     #   Z        covCN         q      C6AA      Î±(0)
     1   6 C      2.829    -0.069    29.718     8.933
     2   6 C      1.904    -0.109    34.132     9.435
     3   1 H      0.925     0.062     2.174     2.306
     4   1 H      0.925     0.062     2.174     2.306
     5   1 H      0.925     0.054     2.272     2.357

Wiberg/Mayer (AO) data.
largest (>0.10) Wiberg bond orders for each atom
          total WBO             WBO to atom ...

molecular dipole:
                 x           y           z       tot (Debye)
 q only:       -0.174       0.101      -0.178
   full:       -0.180       0.211      -0.424       1.288

 projected vibrational frequencies (cm-1)
eigval :       -0.00    -0.00    -0.00     0.00     0.00     0.00
eigval :      625.57   702.63   907.72   924.51  1227.44  1332.59
eigval :     2908.03  2931.90  2945.57

   temp. (K)  partition function   enthalpy   heat capacity  entropy
                                   cal/mol     cal/K/mol   cal/K/mol   J/K/mol
  10.00  VIB   1.00                    0.000      0.000     -0.000
         ROT   14.3                   29.809      2.981      8.263
         INT   14.3                   29.809      2.981      8.263
         TR   0.836E+24               49.681      4.968     18.945
         TOT                          79.4904     7.9490    27.2084   113.8398

       T/K    H(0)-H(T)+PV         H(T)/Eh          T*S/Eh         G(T)/Eh
   ------------------------------------------------------------------------
    298.15    0.416136E-02    0.372084E-01    0.262373E-01    0.109711E-01
    120.00    0.152254E-02    0.345696E-01    0.898207E-02    0.255875E-01
    100.00    0.126726E-02    0.343143E-01    0.725245E-02    0.270618E-01
     80.00    0.101346E-02    0.340605E-01    0.557550E-02    0.284850E-01
     60.00    0.760057E-03    0.338071E-01    0.396300E-02    0.298441E-01
     40.00    0.506704E-03    0.335537E-01    0.243661E-02    0.311171E-01
     20.00    0.253352E-03    0.333004E-01    0.104274E-02    0.322576E-01
     10.00    0.126676E-03    0.331737E-01    0.433593E-03    0.327401E-01 (used)
   ------------------------------------------------------------------------

         :::::::::::::::::::::::::::::::::::::::::::::::::::::
         ::                  THERMODYNAMIC                  ::
         :::::::::::::::::::::::::::::::::::::::::::::::::::::
         :: total free energy          -5.465052322614 Eh   ::
         ::.................................................::
         :: total energy               -5.497792424676 Eh   ::
         :: zero point energy           0.033047019127 Eh   ::
         :: G(RRHO) w/o ZPVE           -0.000306917066 Eh   ::
         :: G(RRHO) contrib.            0.032740102062 Eh   ::
         :::::::::::::::::::::::::::::::::::::::::::::::::::::

           -------------------------------------------------
          | TOTAL ENERGY               -5.497792424676 Eh   |
          | TOTAL ENTHALPY             -5.464618729533 Eh   |
          | TOTAL FREE ENERGY          -5.465052322614 Eh   |
          | GRADIENT NORM               0.000655747518 Eh/Î± |
          | HOMO-LUMO GAP              12.002662896630 eV   |
           -------------------------------------------------

 * finished run on 2020/05/12 at 11:45:12.795
