 Gaussian 16, Revision B.01,

 --------------------------------------------------------
 #P M062X/cc-pvtz nosymm opt(noeigentest) optcyc=120 freq
 --------------------------------------------------------

 -----
 Title
 -----
 Symbolic Z-matrix:
 Charge =  0 Multiplicity = 2

 SCF Done:  E(UM062X) =  -118.429404938     A.U. after   14 cycles
 SCF Done:  E(UM062X) =  -118.439429511     A.U. after   12 cycles
 SCF Done:  E(UM062X) =  -118.441733478     A.U. after   12 cycles
 SCF Done:  E(UM062X) =  -118.442075043     A.U. after   12 cycles
 SCF Done:  E(UM062X) =  -118.442107949     A.U. after   10 cycles
 SCF Done:  E(UM062X) =  -118.442117989     A.U. after   10 cycles
 SCF Done:  E(UM062X) =  -118.442118597     A.U. after    8 cycles
 SCF Done:  E(UM062X) =  -118.442119717     A.U. after    8 cycles
 SCF Done:  E(UM062X) =  -118.442121098     A.U. after   10 cycles
 SCF Done:  E(UM062X) =  -118.442121481     A.U. after    8 cycles
 SCF Done:  E(UM062X) =  -118.442121608     A.U. after    7 cycles
 Optimization completed.
    -- Stationary point found.
 Normal termination of Gaussian 16 at Sat Sep 26 00:19:50 2020.

 -------------------------------------------------------------------
 #P Geom=AllCheck Guess=TCheck SCRF=Check GenChk UM062X/CC-pVTZ Freq
 -------------------------------------------------------------------

 Structure from the checkpoint file:  "input.chk"
 -----
 Title
 -----
 Charge =  0 Multiplicity = 2

 SCF Done:  E(UM062X) =  -118.442121608     A.U. after    1 cycles

  Exact polarizability:  37.785   0.789  32.358  -2.402   0.790  40.362
 Approx polarizability:  40.724   0.928  38.570  -0.143   0.362  42.657

                      1                      2                      3
                      A                      A                      A
 Frequencies --     99.5496               255.0470               373.6811
 Red. masses --      1.0348                 1.1062                 1.8726
 Frc consts  --      0.0060                 0.0424                 0.1541
 IR Inten    --      0.4371                 0.0249                 3.6298

                      4                      5                      6
                      A                      A                      A
 Frequencies --    454.6234               756.5421               895.5731
 Red. masses --      1.3147                 1.1708                 1.7612
 Frc consts  --      0.1601                 0.3948                 0.8323
 IR Inten    --     42.3341                 1.1137                 0.2132

                      7                      8                      9
                      A                      A                      A
 Frequencies --    928.9461              1052.9534              1101.4368
 Red. masses --      1.3805                 1.3821                 2.2548
 Frc consts  --      0.7019                 0.9028                 1.6117
 IR Inten    --      1.4505                 0.6631                 0.1772

                     10                     11                     12
                      A                      A                      A
 Frequencies --   1178.2498              1272.8387              1364.8077
 Red. masses --      1.8530                 1.1949                 1.4779
 Frc consts  --      1.5157                 1.1406                 1.6220
 IR Inten    --      0.2498                 0.1382                 1.7693

                     13                     14                     15
                      A                      A                      A
 Frequencies --   1410.9998              1469.8580              1475.2381
 Red. masses --      1.2821                 1.1856                 1.0691
 Frc consts  --      1.5039                 1.5092                 1.3708
 IR Inten    --      2.7205                 2.0695                 2.1102

                     16                     17                     18
                      A                      A                      A
 Frequencies --   1501.9681              1509.2142              2985.3092
 Red. masses --      1.0389                 1.0625                 1.0724
 Frc consts  --      1.3808                 1.4259                 5.6308
 IR Inten    --      7.0620                 3.8080                24.5748

                     19                     20                     21
                      A                      A                      A
 Frequencies --   3058.9008              3062.5840              3130.0803
 Red. masses --      1.0796                 1.0407                 1.1023
 Frc consts  --      5.9520                 5.7511                 6.3627
 IR Inten    --     10.4033                27.8168                28.5775

                     22                     23                     24
                      A                      A                      A
 Frequencies --   3139.6861              3165.1186              3268.4105
 Red. masses --      1.1024                 1.0513                 1.1186
 Frc consts  --      6.4027                 6.2050                 7.0403
 IR Inten    --     23.5021                12.1117                10.0212

 - Thermochemistry -
 -------------------
 Temperature   298.150 Kelvin.  Pressure   1.00000 Atm.
 Atom     1 has atomic number  6 and mass  12.00000

 Molecular mass:    43.05478 amu.
 Principal axes and moments of inertia in atomic units:
                           1         2         3
     Eigenvalues --    54.95197 198.20222 229.46502
           X           -0.61960   0.78112  -0.07709
           Y            0.05924   0.14447   0.98773
           Z            0.78268   0.60744  -0.13579
 This molecule is an asymmetric top.
 Rotational symmetry number  1.
 Rotational temperatures (Kelvin)      1.57617     0.43700     0.37746
 Rotational constants (GHZ):          32.84215     9.10555     7.86499
 Zero-point vibrational energy     232743.2 (Joules/Mol)
                                   55.62695 (Kcal/Mol)
 Warning -- explicit consideration of   4 degrees of freedom as
           vibrations may cause significant error
 Vibrational temperatures:    143.23   366.96   537.64   654.10  1088.50
          (Kelvin)           1288.53  1336.55  1514.97  1584.72  1695.24
                             1831.33  1963.65  2030.11  2114.80  2122.54
                             2161.00  2171.42  4295.19  4401.08  4406.38
                             4503.49  4517.31  4553.90  4702.51

 Zero-point correction=                           0.088647 (Hartree/Particle)
 Thermal correction to Energy=                    0.093608
 Thermal correction to Enthalpy=                  0.094552
 Thermal correction to Gibbs Free Energy=         0.061843
 Sum of electronic and zero-point Energies=           -118.353474
 Sum of electronic and thermal Energies=              -118.348514
 Sum of electronic and thermal Enthalpies=            -118.347570
 Sum of electronic and thermal Free Energies=         -118.380279

                     E (Thermal)             CV                S
                      KCal/Mol        Cal/Mol-Kelvin    Cal/Mol-Kelvin
 Total                   58.740             15.752             68.842
 Electronic               0.000              0.000              1.377
 Translational            0.889              2.981             37.206
 Rotational               0.889              2.981             22.440
 Vibrational             56.962              9.790              7.818
 Vibration     1          0.604              1.949              3.463
 Vibration     2          0.665              1.754              1.695
 Vibration     3          0.745              1.526              1.065
 Vibration     4          0.813              1.351              0.782

 Optimization completed.
    -- Stationary point found.
 Normal termination of Gaussian 16 at Sat Sep 26 00:24:00 2020.
 Gaussian 16:  ES64L-G16RevB.01 20-Dec-2017

 -----------------------------------------------
 #P CCSD(T)/aug-cc-pvtz geom=allcheck guess=read
 -----------------------------------------------

 Structure from the checkpoint file:  "input.chk"
 -----
 Title
 -----
 Charge =  0 Multiplicity = 2

                         Standard orientation:
 ---------------------------------------------------------------------
 Center     Atomic      Atomic             Coordinates (Angstroms)
 Number     Number       Type             X           Y           Z
 ---------------------------------------------------------------------
      1          6           0       -0.079091    0.559185    0.047327
      2          6           0       -1.291079   -0.296237   -0.031793
      3          6           0        1.215819   -0.243818   -0.034692
      4          1           0       -2.256969    0.125352   -0.264518
      5          1           0       -1.255299   -1.322665    0.304273
      6          1           0        2.090440    0.400727    0.042356
      7          1           0        1.263931   -0.975620    0.772577
      8          1           0        1.272906   -0.785789   -0.978672
      9          1           0       -0.104557    1.310901   -0.746186
     10          1           0       -0.084347    1.132320    0.985125
 ---------------------------------------------------------------------

 SCF Done:  E(UHF) =  -117.676535969     A.U. after   14 cycles
 E2 =    -0.5116839473D+00 EUMP2 =    -0.11818821991620D+03
 CCSD(T)
 CCSD(T)= -0.11824998766D+03

 The electronic state is 2-A.
 Alpha  occ. eigenvalues --  -11.22545 -11.22112 -11.21171  -1.06370  -0.92773
 Alpha  occ. eigenvalues --   -0.80173  -0.62452  -0.60978  -0.56469  -0.50659
 Alpha  occ. eigenvalues --   -0.49810  -0.48529  -0.34741
 Alpha virt. eigenvalues --    0.03190   0.03924   0.04111   0.04360   0.06095
 Alpha virt. eigenvalues --    0.06393   0.06560   0.10162   0.10476   0.12054
 Alpha virt. eigenvalues --    0.12393   0.13204   0.14196   0.14272   0.14675

  Beta  occ. eigenvalues --  -11.22423 -11.21116 -11.20215  -1.04473  -0.88888
  Beta  occ. eigenvalues --   -0.76996  -0.61414  -0.59594  -0.55663  -0.49302
  Beta  occ. eigenvalues --   -0.48850  -0.48082
  Beta virt. eigenvalues --    0.03224   0.03950   0.04126   0.04291   0.06110
  Beta virt. eigenvalues --    0.06402   0.06555   0.08433   0.10214   0.12048
  Beta virt. eigenvalues --    0.12446   0.13004   0.13924   0.14311   0.14699

 Mulliken charges and spin densities:
               1          2
     1  C   -0.204432  -0.188246
     2  C   -1.068251   1.207358
     3  C   -0.896207   0.024237
     4  H    0.370211  -0.071954
     5  H    0.450458  -0.048605
     6  H    0.275727  -0.001016
     7  H    0.271011  -0.002823
     8  H    0.289034  -0.003947
     9  H    0.264784   0.023380
    10  H    0.247665   0.061617
 Sum of Mulliken charges =  -0.00000   1.00000

 Dipole moment (field-independent basis, Debye):
    X=              0.1202    Y=              0.1872    Z=              0.1186  Tot=              0.2521
 Quadrupole moment (field-independent basis, Debye-Ang):
   XX=            -21.3920   YY=            -20.8803   ZZ=            -21.6572
   XY=             -0.1006   XZ=              0.0727   YZ=             -0.4779

 26\CCSD=-118.2297037\CCSD(T)=-118.2499877\S2=0.763164\S2-1=0.753442\S2
 Normal termination of Gaussian 16 at Sat Sep 26 01:58:50 2020.
