   * xtb version 6.2.2 (9d81278992624c895f80dd42a50cac0aa55982e2) compiled by '@Darwin' on 04/03/2020
          program call               : xtb --input H2C1N2_9_S_2.input H2C1N2_9_S_2.xyz --ohess --molden --namespace H2C1N2_9_S_2 output.out
          number of atoms            :                     5
          number of electrons        :                    16
          charge                     :                     0
          spin                       :                   1.0

   ID    Z sym.   atoms
    1    6 C      1
    2    7 N      2, 3
    3    1 H      4, 5

          :  Hamiltonian                  GFN2-xTB          :
 * total energy  :    -8.7378204 Eh     change       -0.5473204E-09 Eh
 * total energy  :    -8.7812487 Eh     change       -0.4342831E-01 Eh
 * total energy  :    -8.7947985 Eh     change       -0.1354978E-01 Eh
 * total energy  :    -8.7957667 Eh     change       -0.9682350E-03 Eh
 * total energy  :    -8.7992515 Eh     change       -0.3484841E-02 Eh
 * total energy  :    -8.8016602 Eh     change       -0.2408634E-02 Eh
 * total energy  :    -8.8050726 Eh     change       -0.3412470E-02 Eh
 * total energy  :    -8.8064768 Eh     change       -0.1404156E-02 Eh
 * total energy  :    -8.8067085 Eh     change       -0.2317116E-03 Eh
 * total energy  :    -8.8067725 Eh     change       -0.6399416E-04 Eh
 * total energy  :    -8.8068020 Eh     change       -0.2944478E-04 Eh
 * total energy  :    -8.8068064 Eh     change       -0.4407115E-05 Eh
 * total energy  :    -8.8068103 Eh     change       -0.3969387E-05 Eh
   *** GEOMETRY OPTIMIZATION CONVERGED AFTER 13 ITERATIONS ***

 final structure:
================
5
 xtb: 6.2.2 (9d81278992624c895f80dd42a50cac0aa55982e2)
C         0.03858666742921   -0.51556316615484   -0.06668562489132
N        -1.23372171269692   -0.41094741780251   -0.07159337577713
N         0.96575340677524    0.36846554913595    0.08045499942443
H        -1.69821807882442    0.48842097778855    0.09591019377910
H         1.92759971731690    0.06962505703286   -0.03808619253508

          :  Hamiltonian                  GFN2-xTB          :
         :: gradient norm              0.000957793944 Eh/a0 ::
         :: HOMO-LUMO gap              2.764115324758 eV    ::
         :: SCC energy                -8.918307458392 Eh    ::
         :: -> dispersion             -0.001408990792 Eh    ::
         :: repulsion energy           0.111497155314 Eh    ::

    * Orbital Energies and Occupations

         #    Occupation            Energy/Eh            Energy/eV
      -------------------------------------------------------------
         1        2.0000           -0.6583467             -17.9145
         2        2.0000           -0.6315507             -17.1854
         3        2.0000           -0.5621302             -15.2963
         4        2.0000           -0.5425022             -14.7622
         5        2.0000           -0.5110056             -13.9052
         6        2.0000           -0.4798887             -13.0584
         7        1.8597           -0.4269082             -11.6168
         8        1.1403           -0.4234644             -11.5231
         9        1.0000           -0.3045513              -8.2873 (HOMO)
        10                         -0.2029720              -5.5231 (LUMO)
        11                          0.0811821               2.2091
        12                          0.1228120               3.3419
        13                          0.3663484               9.9688
        14                          0.5998286              16.3222
      -------------------------------------------------------------
                  HL-Gap            0.1015793 Eh            2.7641 eV

     #   Z        covCN         q      C6AA      Î±(0)
     1   6 C      1.821     0.078    29.203     8.731
     2   7 N      1.776    -0.203    26.206     7.581
     3   7 N      1.777    -0.225    26.723     7.655
     4   1 H      0.859     0.172     1.264     1.761
     5   1 H      0.860     0.178     1.227     1.735

Wiberg/Mayer (AO) data.
largest (>0.10) Wiberg bond orders for each atom
          total WBO             WBO to atom ...

molecular dipole:
                 x           y           z       tot (Debye)
 q only:        0.166       0.106       0.002
   full:        0.348       0.254       0.027       1.096

 projected vibrational frequencies (cm-1)
eigval :       -0.00    -0.00    -0.00     0.00     0.00     0.00
eigval :      218.01   428.72   770.04   955.21  1054.13  1367.09
eigval :     1520.10  3095.19  3340.40

   temp. (K)  partition function   enthalpy   heat capacity  entropy
                                   cal/mol     cal/K/mol   cal/K/mol   J/K/mol
  10.00  VIB   1.00                    0.000      0.000     -0.004
         ROT   42.0                   29.809      2.981     10.409
         INT   42.0                   29.809      2.981     10.404
         TR   0.162E+25               49.681      4.968     20.259
         TOT                          79.4904     7.9490    30.6640   128.2981

       T/K    H(0)-H(T)+PV         H(T)/Eh          T*S/Eh         G(T)/Eh
   ------------------------------------------------------------------------
    298.15    0.476652E-02    0.338106E-01    0.289533E-01    0.485727E-02
    120.00    0.161054E-02    0.306546E-01    0.976284E-02    0.208918E-01
    100.00    0.131602E-02    0.303601E-01    0.786746E-02    0.224927E-01
     80.00    0.103438E-02    0.300785E-01    0.604284E-02    0.240356E-01
     60.00    0.765482E-03    0.298096E-01    0.430033E-02    0.255092E-01
     40.00    0.507095E-03    0.295512E-01    0.265757E-02    0.268936E-01
     20.00    0.253352E-03    0.292975E-01    0.115295E-02    0.281445E-01
     10.00    0.126676E-03    0.291708E-01    0.488661E-03    0.286821E-01 (used)
   ------------------------------------------------------------------------

         :::::::::::::::::::::::::::::::::::::::::::::::::::::
         ::                  THERMODYNAMIC                  ::
         :::::::::::::::::::::::::::::::::::::::::::::::::::::
         :: total free energy          -8.778128220580 Eh   ::
         ::.................................................::
         :: total energy               -8.806810333168 Eh   ::
         :: zero point energy           0.029044098060 Eh   ::
         :: G(RRHO) w/o ZPVE           -0.000361985472 Eh   ::
         :: G(RRHO) contrib.            0.028682112588 Eh   ::
         :::::::::::::::::::::::::::::::::::::::::::::::::::::

           -------------------------------------------------
          | TOTAL ENERGY               -8.806810333168 Eh   |
          | TOTAL ENTHALPY             -8.777639559092 Eh   |
          | TOTAL FREE ENERGY          -8.778128220580 Eh   |
          | GRADIENT NORM               0.000958193112 Eh/Î± |
          | HOMO-LUMO GAP               2.764114233928 eV   |
           -------------------------------------------------

 * finished run on 2020/05/12 at 11:45:23.208
