   * xtb version 6.2.2 (9d81278992624c895f80dd42a50cac0aa55982e2) compiled by '@Darwin' on 04/03/2020
          program call               : xtb --input C4N1_42_S_1.input C4N1_42_S_1.xyz --ohess --molden --namespace C4N1_42_S_1 output.out
          number of atoms            :                     5
          number of electrons        :                    21
          charge                     :                     0
          spin                       :                   0.5

   ID    Z sym.   atoms
    1    7 N      1
    2    6 C      2-5

          :  Hamiltonian                  GFN2-xTB          :
 * total energy  :   -10.9162029 Eh     change        0.1971827E-09 Eh
 * total energy  :   -10.9772055 Eh     change       -0.6100264E-01 Eh
 * total energy  :   -10.9727113 Eh     change        0.4494193E-02 Eh
 * total energy  :   -10.9945440 Eh     change       -0.2183271E-01 Eh
 * total energy  :   -11.0075072 Eh     change       -0.1296321E-01 Eh
 * total energy  :   -11.0211517 Eh     change       -0.1364446E-01 Eh
 * total energy  :   -11.0512329 Eh     change       -0.3008125E-01 Eh
 * total energy  :   -11.0660147 Eh     change       -0.1478171E-01 Eh
 * total energy  :   -11.0779129 Eh     change       -0.1189829E-01 Eh
 * total energy  :   -11.0805532 Eh     change       -0.2640267E-02 Eh
 * total energy  :   -11.1491436 Eh     change       -0.9104991E-03 Eh
 * total energy  :   -11.1497643 Eh     change       -0.6206876E-03 Eh
 * total energy  :   -11.1505690 Eh     change       -0.8046653E-03 Eh
 * total energy  :   -11.1509789 Eh     change       -0.4098635E-03 Eh
 * total energy  :   -11.1512270 Eh     change       -0.2481364E-03 Eh
 * total energy  :   -11.1513732 Eh     change       -0.1461676E-03 Eh
 * total energy  :   -11.1514015 Eh     change       -0.2838192E-04 Eh
 * total energy  :   -11.1514089 Eh     change       -0.7330384E-05 Eh
 * total energy  :   -11.1514112 Eh     change       -0.2291313E-05 Eh
   *** GEOMETRY OPTIMIZATION CONVERGED AFTER 52 ITERATIONS ***

 final structure:
================
5
 xtb: 6.2.2 (9d81278992624c895f80dd42a50cac0aa55982e2)
N         1.97427737430263    0.97813067344938    0.36094671119027
C         0.95221045190671    0.49007367918913    0.15624816945342
C        -1.42664094938034   -0.24465015187377   -0.74488468401954
C        -1.23760793216648   -1.13247995358851    0.31419158794908
C        -0.26223894466252   -0.09107424717622   -0.08650178457324

          :  Hamiltonian                  GFN2-xTB          :
         :: gradient norm              0.000764720081 Eh/a0 ::
         :: HOMO-LUMO gap              1.738256642804 eV    ::
         :: SCC energy               -11.383413346852 Eh    ::
         :: -> dispersion             -0.002690622671 Eh    ::
         :: repulsion energy           0.232002259367 Eh    ::

    * Orbital Energies and Occupations

         #    Occupation            Energy/Eh            Energy/eV
      -------------------------------------------------------------
         1        2.0000           -0.7291587             -19.8414
         2        2.0000           -0.6932207             -18.8635
         3        2.0000           -0.6564825             -17.8638
         4        2.0000           -0.5969768             -16.2446
         5        2.0000           -0.5623110             -15.3013
         6        2.0000           -0.5380312             -14.6406
         7        2.0000           -0.5258604             -14.3094
         8        2.0000           -0.5133120             -13.9679
         9        2.0000           -0.4708263             -12.8118
        10        2.0000           -0.4425384             -12.0421
        11        1.0000           -0.4203944             -11.4395 (HOMO)
        12                         -0.3565144              -9.7012 (LUMO)
        13                         -0.2963932              -8.0653
        14                         -0.2581222              -7.0239
        15                         -0.1784263              -4.8552
        16                         -0.0267899              -0.7290
        17                          0.0597665               1.6263
        18                          0.3140080               8.5446
        19                          0.5770158              15.7014
        20                          1.1973056              32.5803
      -------------------------------------------------------------
                  HL-Gap            0.0638801 Eh            1.7383 eV

     #   Z        covCN         q      C6AA      Î±(0)
     1   7 N      0.911    -0.161    24.484     7.156
     2   6 C      1.891     0.128    27.971     8.542
     3   6 C      1.961     0.008    30.853     8.970
     4   6 C      1.958    -0.089    33.514     9.349
     5   6 C      2.940     0.113    25.505     8.283

Wiberg/Mayer (AO) data.
largest (>0.10) Wiberg bond orders for each atom
          total WBO             WBO to atom ...

molecular dipole:
                 x           y           z       tot (Debye)
 q only:       -0.241      -0.012      -0.155
   full:       -0.312       0.149      -0.371       1.290

 projected vibrational frequencies (cm-1)
eigval :       -0.00    -0.00    -0.00    -0.00     0.00     0.00
eigval :      189.16   200.82   498.86   546.01   706.55   940.24
eigval :     1204.44  1793.15  2301.55

   temp. (K)  partition function   enthalpy   heat capacity  entropy
                                   cal/mol     cal/K/mol   cal/K/mol   J/K/mol
  10.00  VIB   1.00                    0.000      0.000     -0.011
         ROT   234.                   29.809      2.981     13.818
         INT   234.                   29.809      2.981     13.808
         TR   0.290E+25               49.681      4.968     21.419
         TOT                          79.4904     7.9490    35.2271   147.3903

       T/K    H(0)-H(T)+PV         H(T)/Eh          T*S/Eh         G(T)/Eh
   ------------------------------------------------------------------------
    298.15    0.550587E-02    0.245987E-01    0.324295E-01   -0.783085E-02
    120.00    0.172021E-02    0.208130E-01    0.107948E-01    0.100182E-01
    100.00    0.138415E-02    0.204770E-01    0.868973E-02    0.117872E-01
     80.00    0.106893E-02    0.201618E-01    0.667084E-02    0.134909E-01
     60.00    0.776886E-03    0.198697E-01    0.475155E-02    0.151182E-01
     40.00    0.508329E-03    0.196011E-01    0.295038E-02    0.166508E-01
     20.00    0.253354E-03    0.193462E-01    0.129851E-02    0.180477E-01
     10.00    0.126676E-03    0.192195E-01    0.561380E-03    0.186581E-01 (used)
   ------------------------------------------------------------------------

         :::::::::::::::::::::::::::::::::::::::::::::::::::::
         ::                  THERMODYNAMIC                  ::
         :::::::::::::::::::::::::::::::::::::::::::::::::::::
         :: total free energy         -11.132753044565 Eh   ::
         ::.................................................::
         :: total energy              -11.151411160549 Eh   ::
         :: zero point energy           0.019092819977 Eh   ::
         :: G(RRHO) w/o ZPVE           -0.000434703993 Eh   ::
         :: G(RRHO) contrib.            0.018658115985 Eh   ::
         :::::::::::::::::::::::::::::::::::::::::::::::::::::

           -------------------------------------------------
          | TOTAL ENERGY              -11.151411160549 Eh   |
          | TOTAL ENTHALPY            -11.132191664556 Eh   |
          | TOTAL FREE ENERGY         -11.132753044565 Eh   |
          | GRADIENT NORM               0.000764555556 Eh/Î± |
          | HOMO-LUMO GAP               1.738265101427 eV   |
           -------------------------------------------------

 * finished run on 2020/05/12 at 11:44:17.328
