   * xtb version 6.2.2 (9d81278992624c895f80dd42a50cac0aa55982e2) compiled by '@Darwin' on 04/03/2020
          program call               : xtb --input H2C1N1_1_S_1.input H2C1N1_1_S_1.xyz --ohess --molden --namespace H2C1N1_1_S_1 output.out
          number of atoms            :                     4
          number of electrons        :                    11
          charge                     :                     0
          spin                       :                   0.5

   ID    Z sym.   atoms
    1    6 C      1
    2    7 N      2
    3    1 H      3, 4

          :  Hamiltonian                  GFN2-xTB          :
 * total energy  :    -5.8733570 Eh     change       -0.8904690E-09 Eh
 * total energy  :    -5.9195340 Eh     change       -0.4617696E-01 Eh
 * total energy  :    -5.9041399 Eh     change        0.1539413E-01 Eh
 * total energy  :    -5.9415117 Eh     change       -0.3737182E-01 Eh
 * total energy  :    -5.9399174 Eh     change        0.1594306E-02 Eh
 * total energy  :    -5.9456157 Eh     change       -0.5698334E-02 Eh
 * total energy  :    -5.9460748 Eh     change       -0.4590600E-03 Eh
 * total energy  :    -5.9461301 Eh     change       -0.5532616E-04 Eh
 * total energy  :    -5.9461400 Eh     change       -0.9860717E-05 Eh
 * total energy  :    -5.9461408 Eh     change       -0.8182646E-06 Eh
   *** GEOMETRY OPTIMIZATION CONVERGED AFTER 10 ITERATIONS ***

 final structure:
================
4
 xtb: 6.2.2 (9d81278992624c895f80dd42a50cac0aa55982e2)
C         0.56275479175479    0.39102185532535    0.02602186614939
N        -0.64364548121178    0.35977873544154   -0.06086961339213
H         1.37211587153644   -0.31917707082958    0.11251079449522
H        -1.29122518207945   -0.43162351993732   -0.07766304725248

          :  Hamiltonian                  GFN2-xTB          :
         :: gradient norm              0.000922775950 Eh/a0 ::
         :: HOMO-LUMO gap              2.179168976505 eV    ::
         :: SCC energy                -6.045672290132 Eh    ::
         :: -> dispersion             -0.000742321688 Eh    ::
         :: repulsion energy           0.099531512262 Eh    ::

    * Orbital Energies and Occupations

         #    Occupation            Energy/Eh            Energy/eV
      -------------------------------------------------------------
         1        2.0000           -0.6382281             -17.3671
         2        2.0000           -0.5635773             -15.3357
         3        2.0000           -0.5274867             -14.3536
         4        2.0000           -0.4761871             -12.9577
         5        2.0000           -0.4386666             -11.9367
         6        1.0000           -0.3097097              -8.4276 (HOMO)
         7                         -0.2296267              -6.2485 (LUMO)
         8                          0.1165772               3.1722
         9                          0.1879459               5.1143
        10                          0.7658737              20.8405
      -------------------------------------------------------------
                  HL-Gap            0.0800830 Eh            2.1792 eV

     #   Z        covCN         q      C6AA      Î±(0)
     1   6 C      1.836    -0.018    31.638     9.087
     2   7 N      1.770    -0.194    26.002     7.551
     3   1 H      0.926     0.051     2.302     2.372
     4   1 H      0.859     0.161     1.331     1.807

Wiberg/Mayer (AO) data.
largest (>0.10) Wiberg bond orders for each atom
          total WBO             WBO to atom ...

molecular dipole:
                 x           y           z       tot (Debye)
 q only:       -0.041      -0.307       0.009
   full:        0.032      -0.752       0.031       1.916

 projected vibrational frequencies (cm-1)
eigval :       -0.00    -0.00    -0.00    -0.00     0.00     0.00
eigval :      803.96   858.70   931.80  1921.63  2940.79  3103.36

   temp. (K)  partition function   enthalpy   heat capacity  entropy
                                   cal/mol     cal/K/mol   cal/K/mol   J/K/mol
  10.00  VIB   1.00                    0.000      0.000     -0.000
         ROT   6.58                   29.809      2.981      6.725
         INT   6.58                   29.809      2.981      6.725
         TR   0.882E+24               49.681      4.968     19.052
         TOT                          79.4904     7.9490    25.7769   107.8504

       T/K    H(0)-H(T)+PV         H(T)/Eh          T*S/Eh         G(T)/Eh
   ------------------------------------------------------------------------
    298.15    0.396588E-02    0.280239E-01    0.253005E-01    0.272338E-02
    120.00    0.152054E-02    0.255786E-01    0.870604E-02    0.168725E-01
    100.00    0.126682E-02    0.253248E-01    0.702381E-02    0.183010E-01
     80.00    0.101341E-02    0.250714E-01    0.539294E-02    0.196785E-01
     60.00    0.760056E-03    0.248181E-01    0.382611E-02    0.209920E-01
     40.00    0.506704E-03    0.245647E-01    0.234535E-02    0.222194E-01
     20.00    0.253352E-03    0.243114E-01    0.997119E-03    0.233142E-01
     10.00    0.126676E-03    0.241847E-01    0.410781E-03    0.237739E-01 (used)
   ------------------------------------------------------------------------

         :::::::::::::::::::::::::::::::::::::::::::::::::::::
         ::                  THERMODYNAMIC                  ::
         :::::::::::::::::::::::::::::::::::::::::::::::::::::
         :: total free energy          -5.922366874454 Eh   ::
         ::.................................................::
         :: total energy               -5.946140777776 Eh   ::
         :: zero point energy           0.024058007890 Eh   ::
         :: G(RRHO) w/o ZPVE           -0.000284104568 Eh   ::
         :: G(RRHO) contrib.            0.023773903322 Eh   ::
         :::::::::::::::::::::::::::::::::::::::::::::::::::::

           -------------------------------------------------
          | TOTAL ENERGY               -5.946140777776 Eh   |
          | TOTAL ENTHALPY             -5.921956093870 Eh   |
          | TOTAL FREE ENERGY          -5.922366874454 Eh   |
          | GRADIENT NORM               0.000922824318 Eh/Î± |
          | HOMO-LUMO GAP               2.179169044612 eV   |
           -------------------------------------------------

 * finished run on 2020/05/12 at 11:43:50.161
