   * xtb version 6.2.2 (9d81278992624c895f80dd42a50cac0aa55982e2) compiled by '@Darwin' on 04/03/2020
          program call               : xtb --input H1C4_7_S_3.input H1C4_7_S_3.xyz --ohess --molden --namespace H1C4_7_S_3 output.out
          number of atoms            :                     5
          number of electrons        :                    17
          charge                     :                     0
          spin                       :                   1.5

   ID    Z sym.   atoms
    1    6 C      1-4
    2    1 H      5

          :  Hamiltonian                  GFN2-xTB          :
 * total energy  :    -8.5864968 Eh     change       -0.1185340E-08 Eh
 * total energy  :    -8.6112855 Eh     change       -0.2478871E-01 Eh
 * total energy  :    -8.6177774 Eh     change       -0.6491899E-02 Eh
 * total energy  :    -8.6358457 Eh     change       -0.1806827E-01 Eh
 * total energy  :    -8.6408366 Eh     change       -0.4990945E-02 Eh
 * total energy  :    -8.6429817 Eh     change       -0.2145095E-02 Eh
 * total energy  :    -8.6457675 Eh     change       -0.2785730E-02 Eh
 * total energy  :    -8.6465162 Eh     change       -0.7487503E-03 Eh
 * total energy  :    -8.6476797 Eh     change       -0.1163436E-02 Eh
 * total energy  :    -8.6479362 Eh     change       -0.2565342E-03 Eh
 * total energy  :    -8.6480085 Eh     change       -0.7228470E-04 Eh
 * total energy  :    -8.6480216 Eh     change       -0.1311276E-04 Eh
 * total energy  :    -8.6480220 Eh     change       -0.3676843E-06 Eh
   *** GEOMETRY OPTIMIZATION CONVERGED AFTER 13 ITERATIONS ***

 final structure:
================
5
 xtb: 6.2.2 (9d81278992624c895f80dd42a50cac0aa55982e2)
C         0.63883069680031   -0.01007601995929    0.10369409312832
C        -0.44129980424587   -0.90993013328470   -0.09287151539585
C        -1.47317503996718    0.02136005300507    0.15878510331294
C        -0.41378362313290    0.92359430157649   -0.08421328110747
H         1.68942677054565   -0.02494920133757   -0.08539439993794

          :  Hamiltonian                  GFN2-xTB          :
         :: gradient norm              0.000606247078 Eh/a0 ::
         :: HOMO-LUMO gap              1.738775138916 eV    ::
         :: SCC energy                -8.783381388979 Eh    ::
         :: -> dispersion             -0.002140689143 Eh    ::
         :: repulsion energy           0.135359423377 Eh    ::

    * Orbital Energies and Occupations

         #    Occupation            Energy/Eh            Energy/eV
      -------------------------------------------------------------
         1        2.0000           -0.7016268             -19.0922
         2        2.0000           -0.6148927             -16.7321
         3        2.0000           -0.5907381             -16.0748
         4        2.0000           -0.5349691             -14.5573
         5        2.0000           -0.5143723             -13.9968
         6        2.0000           -0.5094862             -13.8638
         7        2.0000           -0.4382319             -11.9249
         8        1.0000           -0.4017540             -10.9323
         9        1.0000           -0.3618836              -9.8474
        10        1.0000           -0.3549289              -9.6581 (HOMO)
        11                         -0.2910300              -7.9193 (LUMO)
        12                         -0.1894574              -5.1554
        13                          0.1264818               3.4417
        14                          0.1279111               3.4806
        15                          0.1782511               4.8505
        16                          0.2700226               7.3477
        17                          0.6266944              17.0532
      -------------------------------------------------------------
                  HL-Gap            0.0638988 Eh            1.7388 eV

     #   Z        covCN         q      C6AA      Î±(0)
     1   6 C      3.156     0.019    27.278     8.540
     2   6 C      2.755    -0.055    29.333     8.869
     3   6 C      2.229     0.004    30.150     8.892
     4   6 C      2.755    -0.055    29.333     8.869
     5   1 H      0.927     0.085     1.924     2.169

Wiberg/Mayer (AO) data.
largest (>0.10) Wiberg bond orders for each atom
          total WBO             WBO to atom ...

molecular dipole:
                 x           y           z       tot (Debye)
 q only:        0.372      -0.006       0.010
   full:        0.569      -0.009       0.042       1.450

 projected vibrational frequencies (cm-1)
eigval :       -0.00    -0.00     0.00     0.00     0.00     0.00
eigval :      538.14   599.75   742.18   829.42   990.02  1084.14
eigval :     1220.55  1392.77  3171.91

   temp. (K)  partition function   enthalpy   heat capacity  entropy
                                   cal/mol     cal/K/mol   cal/K/mol   J/K/mol
  10.00  VIB   1.00                    0.000      0.000     -0.000
         ROT   86.5                   29.809      2.981     11.844
         INT   86.5                   29.809      2.981     11.844
         TR   0.204E+25               49.681      4.968     20.719
         TOT                          79.4904     7.9490    32.5629   136.2433

       T/K    H(0)-H(T)+PV         H(T)/Eh          T*S/Eh         G(T)/Eh
   ------------------------------------------------------------------------
    298.15    0.438941E-02    0.284671E-01    0.290908E-01   -0.623676E-03
    120.00    0.152673E-02    0.256044E-01    0.100109E-01    0.155935E-01
    100.00    0.126842E-02    0.253461E-01    0.810709E-02    0.172390E-01
     80.00    0.101362E-02    0.250913E-01    0.625835E-02    0.188329E-01
     60.00    0.760064E-03    0.248377E-01    0.447500E-02    0.203627E-01
     40.00    0.506704E-03    0.245844E-01    0.277794E-02    0.218064E-01
     20.00    0.253352E-03    0.243310E-01    0.121341E-02    0.231176E-01
     10.00    0.126676E-03    0.242043E-01    0.518923E-03    0.236854E-01 (used)
   ------------------------------------------------------------------------

         :::::::::::::::::::::::::::::::::::::::::::::::::::::
         ::                  THERMODYNAMIC                  ::
         :::::::::::::::::::::::::::::::::::::::::::::::::::::
         :: total free energy          -8.624336536096 Eh   ::
         ::.................................................::
         :: total energy               -8.648021955922 Eh   ::
         :: zero point energy           0.024077667286 Eh   ::
         :: G(RRHO) w/o ZPVE           -0.000392247459 Eh   ::
         :: G(RRHO) contrib.            0.023685419827 Eh   ::
         :::::::::::::::::::::::::::::::::::::::::::::::::::::

           -------------------------------------------------
          | TOTAL ENERGY               -8.648021955922 Eh   |
          | TOTAL ENTHALPY             -8.623817612621 Eh   |
          | TOTAL FREE ENERGY          -8.624336536096 Eh   |
          | GRADIENT NORM               0.000605787057 Eh/Î± |
          | HOMO-LUMO GAP               1.738775457616 eV   |
           -------------------------------------------------

 * finished run on 2020/05/12 at 11:45:11.081
