   * xtb version 6.2.2 (9d81278992624c895f80dd42a50cac0aa55982e2) compiled by '@Darwin' on 04/03/2020
          program call               : xtb --input C4N1_39_S_1.input C4N1_39_S_1.xyz --ohess --molden --namespace C4N1_39_S_1 output.out
          number of atoms            :                     5
          number of electrons        :                    21
          charge                     :                     0
          spin                       :                   0.5

   ID    Z sym.   atoms
    1    7 N      1
    2    6 C      2-5

          :  Hamiltonian                  GFN2-xTB          :
 * total energy  :   -10.9711739 Eh     change       -0.4707186E-09 Eh
 * total energy  :   -11.0215238 Eh     change       -0.5034990E-01 Eh
 * total energy  :   -11.0701508 Eh     change       -0.4862698E-01 Eh
 * total energy  :   -11.0765624 Eh     change       -0.6411585E-02 Eh
 * total energy  :   -11.0781261 Eh     change       -0.1563777E-02 Eh
 * total energy  :   -11.0790558 Eh     change       -0.9296620E-03 Eh
 * total energy  :   -11.0797464 Eh     change       -0.6906232E-03 Eh
 * total energy  :   -11.0803811 Eh     change       -0.6347082E-03 Eh
 * total energy  :   -11.0810000 Eh     change       -0.6188889E-03 Eh
 * total energy  :   -11.0823397 Eh     change       -0.1339662E-02 Eh
 * total energy  :   -11.0855436 Eh     change       -0.1635756E-02 Eh
 * total energy  :   -11.0861264 Eh     change       -0.5827494E-03 Eh
 * total energy  :   -11.0870953 Eh     change       -0.9689408E-03 Eh
 * total energy  :   -11.0875615 Eh     change       -0.4661656E-03 Eh
 * total energy  :   -11.0879193 Eh     change       -0.3578744E-03 Eh
 * total energy  :   -11.0880352 Eh     change       -0.1158471E-03 Eh
 * total energy  :   -11.0880531 Eh     change       -0.1788206E-04 Eh
 * total energy  :   -11.0880548 Eh     change       -0.1740600E-05 Eh
 * total energy  :   -11.0880562 Eh     change       -0.1347156E-05 Eh
   *** GEOMETRY OPTIMIZATION CONVERGED AFTER 21 ITERATIONS ***

 final structure:
================
5
 xtb: 6.2.2 (9d81278992624c895f80dd42a50cac0aa55982e2)
N        -1.26954574473729   -0.39841781484312   -0.01251977187325
C        -0.02043960492819   -0.79316715744595    0.16114968924230
C         0.67531718841536    0.71725755665144   -0.43712109534498
C         1.26215116118544   -0.31108323265611    0.28711403652918
C        -0.64748399993532    0.78540964829374    0.00137714144675

          :  Hamiltonian                  GFN2-xTB          :
         :: gradient norm              0.000436443693 Eh/a0 ::
         :: HOMO-LUMO gap              1.657997408491 eV    ::
         :: SCC energy               -11.253467130967 Eh    ::
         :: -> dispersion             -0.002698301767 Eh    ::
         :: repulsion energy           0.165410938083 Eh    ::

    * Orbital Energies and Occupations

         #    Occupation            Energy/Eh            Energy/eV
      -------------------------------------------------------------
         1        2.0000           -0.7589271             -20.6515
         2        2.0000           -0.6959127             -18.9367
         3        2.0000           -0.6490652             -17.6620
         4        2.0000           -0.6017027             -16.3732
         5        2.0000           -0.5853233             -15.9275
         6        2.0000           -0.5724917             -15.5783
         7        2.0000           -0.5131663             -13.9640
         8        2.0000           -0.4753465             -12.9348
         9        2.0000           -0.4580570             -12.4644
        10        2.0000           -0.4387951             -11.9402
        11        1.0000           -0.4092032             -11.1350 (HOMO)
        12                         -0.3482731              -9.4770 (LUMO)
        13                         -0.3003104              -8.1719
        14                         -0.2561812              -6.9710
        15                         -0.2315916              -6.3019
        16                          0.0956429               2.6026
        17                          0.2371136               6.4522
        18                          0.2840560               7.7296
        19                          0.3178899               8.6502
        20                          0.5801793              15.7875
      -------------------------------------------------------------
                  HL-Gap            0.0609301 Eh            1.6580 eV

     #   Z        covCN         q      C6AA      Î±(0)
     1   7 N      1.852    -0.138    24.775     7.377
Molecule has no symmetry elements
It seems to be the C1 point group
     2   6 C      3.687     0.144    18.427     6.145
     3   6 C      2.866     0.001    28.005     8.675
     4   6 C      2.080    -0.069    32.795     9.251
     5   6 C      2.932     0.062    26.609     8.460

Wiberg/Mayer (AO) data.
largest (>0.10) Wiberg bond orders for each atom
          total WBO             WBO to atom ...

molecular dipole:
                 x           y           z       tot (Debye)
 q only:        0.086       0.021       0.009
   full:        0.077      -0.008      -0.061       0.251

 projected vibrational frequencies (cm-1)
eigval :       -0.00    -0.00    -0.00    -0.00     0.00     0.00
eigval :      241.05   411.90   525.69   685.01   925.33  1005.78
eigval :     1059.33  1330.20  1565.35

   temp. (K)  partition function   enthalpy   heat capacity  entropy
                                   cal/mol     cal/K/mol   cal/K/mol   J/K/mol
  10.00  VIB   1.00                    0.000      0.000     -0.003
         ROT   162.                   29.809      2.981     13.086
         INT   162.                   29.809      2.981     13.083
         TR   0.290E+25               49.681      4.968     21.419
         TOT                          79.4904     7.9490    34.5021   144.3568

       T/K    H(0)-H(T)+PV         H(T)/Eh          T*S/Eh         G(T)/Eh
   ------------------------------------------------------------------------
    298.15    0.502658E-02    0.226816E-01    0.310952E-01   -0.841362E-02
    120.00    0.160362E-02    0.192586E-01    0.104837E-01    0.877485E-02
    100.00    0.130854E-02    0.189635E-01    0.846775E-02    0.104958E-01
     80.00    0.102933E-02    0.186843E-01    0.652527E-02    0.121590E-01
     60.00    0.763562E-03    0.184185E-01    0.466485E-02    0.137537E-01
     40.00    0.506893E-03    0.181619E-01    0.290193E-02    0.152599E-01
     20.00    0.253352E-03    0.179083E-01    0.127526E-02    0.166331E-01
     10.00    0.126676E-03    0.177817E-01    0.549826E-03    0.172318E-01 (used)
   ------------------------------------------------------------------------

         :::::::::::::::::::::::::::::::::::::::::::::::::::::
         ::                  THERMODYNAMIC                  ::
         :::::::::::::::::::::::::::::::::::::::::::::::::::::
         :: total free energy         -11.070824340685 Eh   ::
         ::.................................................::
         :: total energy              -11.088056167822 Eh   ::
         :: zero point energy           0.017654977199 Eh   ::
         :: G(RRHO) w/o ZPVE           -0.000423150062 Eh   ::
         :: G(RRHO) contrib.            0.017231827137 Eh   ::
         :::::::::::::::::::::::::::::::::::::::::::::::::::::

           -------------------------------------------------
          | TOTAL ENERGY              -11.088056167822 Eh   |
          | TOTAL ENTHALPY            -11.070274514608 Eh   |
          | TOTAL FREE ENERGY         -11.070824340685 Eh   |
          | GRADIENT NORM               0.000434904618 Eh/Î± |
          | HOMO-LUMO GAP               1.657993176868 eV   |
           -------------------------------------------------

 * finished run on 2020/05/12 at 11:44:15.742
