   * xtb version 6.2.2 (9d81278992624c895f80dd42a50cac0aa55982e2) compiled by '@Darwin' on 04/03/2020
          program call               : xtb --input C4N1_51_S_3.input C4N1_51_S_3.xyz --ohess --molden --namespace C4N1_51_S_3 output.out
          number of atoms            :                     5
          number of electrons        :                    21
          charge                     :                     0
          spin                       :                   1.5

   ID    Z sym.   atoms
    1    6 C      1, 3-5
    2    7 N      2

          :  Hamiltonian                  GFN2-xTB          :
 * total energy  :   -10.9539814 Eh     change       -0.3191296E-09 Eh
 * total energy  :   -10.9591917 Eh     change       -0.5210293E-02 Eh
 * total energy  :   -10.9640371 Eh     change       -0.4845408E-02 Eh
 * total energy  :   -10.9640997 Eh     change       -0.6253507E-04 Eh
 * total energy  :   -10.9641040 Eh     change       -0.4350254E-05 Eh
 * total energy  :   -10.9641046 Eh     change       -0.5473664E-06 Eh
   *** GEOMETRY OPTIMIZATION CONVERGED AFTER 6 ITERATIONS ***

 final structure:
================
5
 xtb: 6.2.2 (9d81278992624c895f80dd42a50cac0aa55982e2)
C         0.09428439033226    0.96245509139319    0.63413219796939
N        -0.10625757359587    0.19658341441952   -0.67412952044014
C        -0.04115528328491   -1.06074704632400    0.19374531631055
C        -1.00143304470785   -0.00958789223824    0.54836046901727
C         1.05456151125638   -0.08870356725048    0.27951453714294

          :  Hamiltonian                  GFN2-xTB          :
         :: gradient norm              0.000516541058 Eh/a0 ::
         :: HOMO-LUMO gap              4.324698630956 eV    ::
         :: SCC energy               -11.070919542164 Eh    ::
         :: -> dispersion             -0.002747223939 Eh    ::
         :: repulsion energy           0.106814945624 Eh    ::

    * Orbital Energies and Occupations

         #    Occupation            Energy/Eh            Energy/eV
      -------------------------------------------------------------
         1        2.0000           -0.7833837             -21.3170
         2        2.0000           -0.6695922             -18.2205
         3        2.0000           -0.6695920             -18.2205
         4        2.0000           -0.6283366             -17.0979
         5        2.0000           -0.5501183             -14.9695
         6        2.0000           -0.5144421             -13.9987
         7        2.0000           -0.5144418             -13.9987
         8        2.0000           -0.4969387             -13.5224
         9        1.9997           -0.4923442             -13.3974
        10        1.0003           -0.4765943             -12.9688
        11        1.0000           -0.3929333             -10.6923
        12        1.0000           -0.3929324             -10.6922 (HOMO)
        13                         -0.2340027              -6.3675 (LUMO)
        14                         -0.1812184              -4.9312
        15                         -0.1812180              -4.9312
        16                         -0.0609298              -1.6580
        17                          0.0936594               2.5486
        18                          0.0999017               2.7185
        19                          0.0999029               2.7185
        20                          0.3861288              10.5071
      -------------------------------------------------------------
                  HL-Gap            0.1589296 Eh            4.3247 eV

     #   Z        covCN         q      C6AA      Î±(0)
     1   6 C      3.196     0.018    27.074     8.483
     2   7 N      3.600    -0.074    22.660     7.070
     3   6 C      3.196     0.018    27.074     8.483
Molecule has the following symmetry elements: (C4) (C2) 4*(sigma)
It seems to be the C4v point group
     4   6 C      3.196     0.018    27.074     8.483
     5   6 C      3.196     0.018    27.074     8.483

Wiberg/Mayer (AO) data.
largest (>0.10) Wiberg bond orders for each atom
          total WBO             WBO to atom ...

molecular dipole:
                 x           y           z       tot (Debye)
 q only:        0.018      -0.034       0.151
   full:       -0.035       0.064      -0.285       0.747

 projected vibrational frequencies (cm-1)
eigval :       -0.00    -0.00    -0.00     0.00     0.00     0.00
eigval :      451.39   548.01   548.25   803.40   842.47  1018.72
eigval :     1166.34  1166.44  1367.58

   temp. (K)  partition function   enthalpy   heat capacity  entropy
                                   cal/mol     cal/K/mol   cal/K/mol   J/K/mol
  10.00  VIB   1.00                    0.000      0.000     -0.001
         ROT   33.4                   29.809      2.981      9.951
         INT   33.4                   29.809      2.981      9.950
         TR   0.290E+25               49.681      4.968     21.419
         TOT                          79.4904     7.9490    31.3695   131.2498

       T/K    H(0)-H(T)+PV         H(T)/Eh          T*S/Eh         G(T)/Eh
   ------------------------------------------------------------------------
    298.15    0.464675E-02    0.226730E-01    0.288972E-01   -0.622419E-02
    120.00    0.153676E-02    0.195630E-01    0.979464E-02    0.976835E-02
    100.00    0.127181E-02    0.192980E-01    0.792087E-02    0.113772E-01
     80.00    0.101429E-02    0.190405E-01    0.610698E-02    0.129335E-01
     60.00    0.760107E-03    0.187863E-01    0.436096E-02    0.144254E-01
     40.00    0.506704E-03    0.185329E-01    0.270187E-02    0.158311E-01
     20.00    0.253352E-03    0.182796E-01    0.117537E-02    0.171042E-01
     10.00    0.126676E-03    0.181529E-01    0.499904E-03    0.176530E-01 (used)
   ------------------------------------------------------------------------

         :::::::::::::::::::::::::::::::::::::::::::::::::::::
         ::                  THERMODYNAMIC                  ::
         :::::::::::::::::::::::::::::::::::::::::::::::::::::
         :: total free energy         -10.946451570670 Eh   ::
         ::.................................................::
         :: total energy              -10.964104577632 Eh   ::
         :: zero point energy           0.018026235158 Eh   ::
         :: G(RRHO) w/o ZPVE           -0.000373228196 Eh   ::
         :: G(RRHO) contrib.            0.017653006962 Eh   ::
         :::::::::::::::::::::::::::::::::::::::::::::::::::::

           -------------------------------------------------
          | TOTAL ENERGY              -10.964104577632 Eh   |
          | TOTAL ENTHALPY            -10.945951666458 Eh   |
          | TOTAL FREE ENERGY         -10.946451570670 Eh   |
          | GRADIENT NORM               0.000516554539 Eh/Î± |
          | HOMO-LUMO GAP               4.324695182655 eV   |
           -------------------------------------------------

 * finished run on 2020/05/12 at 11:44:21.552
