 Gaussian 16, Revision B.01,
 Gaussian 16:  ES64L-G16RevB.01 20-Dec-2017

 ----------------------
 #P CCSD(T)/aug-cc-pvtz
 ----------------------

 -----
 Title
 -----
 Symbolic Z-matrix:
 Charge =  0 Multiplicity = 1

                         Standard orientation:
 ---------------------------------------------------------------------
 Center     Atomic      Atomic             Coordinates (Angstroms)
 Number     Number       Type             X           Y           Z
 ---------------------------------------------------------------------
      1          2           0        0.000000    0.000000    0.000000
 ---------------------------------------------------------------------

 SCF Done:  E(RHF) =  -2.86118342612     A.U. after    6 cycles
 E2 =    -0.3362081500D-01 EUMP2 =    -0.28948042411193D+01
 CCSD(T)
 CCSD(T)= -0.29005979248D+01

 The electronic state is 1-A1G.
 Alpha  occ. eigenvalues --   -0.91787
 Alpha virt. eigenvalues --    0.11054   0.42677   0.42677   0.42677   0.83911
 Alpha virt. eigenvalues --    1.52011   1.52011   1.52011   1.52011   1.52011
 Alpha virt. eigenvalues --    1.96209   1.96209   1.96209   4.81649   7.10835

 Mulliken charges:
               1
     1  He   0.000000
 Sum of Mulliken charges =   0.00000

 Dipole moment (field-independent basis, Debye):
    X=              0.0000    Y=              0.0000    Z=              0.0000  Tot=              0.0000
 Quadrupole moment (field-independent basis, Debye-Ang):
   XX=             -1.0644   YY=             -1.0644   ZZ=             -1.0644
   XY=              0.0000   XZ=              0.0000   YZ=             -0.0000

 4DQ=-2.9004103\MP4SDQ=-2.9004231\CCSD=-2.9005979\CCSD(T)=-2.9005979\RM
 Normal termination of Gaussian 16 at Mon Oct  5 21:31:51 2020.
