   * xtb version 6.2.2 (9d81278992624c895f80dd42a50cac0aa55982e2) compiled by '@Darwin' on 04/03/2020
          program call               : xtb --input C4N1_24_S_1.input C4N1_24_S_1.xyz --ohess --molden --namespace C4N1_24_S_1 output.out
          number of atoms            :                     5
          number of electrons        :                    21
          charge                     :                     0
          spin                       :                   0.5

   ID    Z sym.   atoms
    1    7 N      1
    2    6 C      2-5

          :  Hamiltonian                  GFN2-xTB          :
 * total energy  :   -10.9216467 Eh     change       -0.1967624E-08 Eh
 * total energy  :   -11.0020168 Eh     change       -0.8037015E-01 Eh
 * total energy  :   -11.0323527 Eh     change       -0.3033586E-01 Eh
 * total energy  :   -11.0592800 Eh     change       -0.2692735E-01 Eh
 * total energy  :   -11.0656093 Eh     change       -0.6329300E-02 Eh
 * total energy  :   -11.0689911 Eh     change       -0.3381821E-02 Eh
 * total energy  :   -11.0699198 Eh     change       -0.9286785E-03 Eh
 * total energy  :   -11.0708532 Eh     change       -0.9333662E-03 Eh
 * total energy  :   -11.0711360 Eh     change       -0.2828518E-03 Eh
 * total energy  :   -11.0712161 Eh     change       -0.8010589E-04 Eh
 * total energy  :   -11.0712808 Eh     change       -0.6460937E-04 Eh
 * total energy  :   -11.0713165 Eh     change       -0.3577004E-04 Eh
 * total energy  :   -11.0713412 Eh     change       -0.2468350E-04 Eh
 * total energy  :   -11.0713507 Eh     change       -0.9535931E-05 Eh
 * total energy  :   -11.0713550 Eh     change       -0.4224711E-05 Eh
   *** GEOMETRY OPTIMIZATION CONVERGED AFTER 15 ITERATIONS ***

 final structure:
================
5
 xtb: 6.2.2 (9d81278992624c895f80dd42a50cac0aa55982e2)
N         1.58449741374771   -0.69410005547225   -0.04178081105480
C         0.50112450838550   -0.21945037793760   -0.00609274003891
C        -0.97739302418126    0.43059135580643    0.33786821264397
C        -0.09355493157712    1.29334432541821   -0.15323240496989
C        -1.01467496637482   -0.81038524781479   -0.13676225658037

          :  Hamiltonian                  GFN2-xTB          :
         :: gradient norm              0.000764283005 Eh/a0 ::
         :: HOMO-LUMO gap              0.622372297354 eV    ::
         :: SCC energy               -11.268140135498 Eh    ::
         :: -> dispersion             -0.002715362387 Eh    ::
         :: repulsion energy           0.196785081599 Eh    ::

    * Orbital Energies and Occupations

         #    Occupation            Energy/Eh            Energy/eV
      -------------------------------------------------------------
         1        2.0000           -0.7584140             -20.6375
         2        2.0000           -0.7066282             -19.2283
         3        2.0000           -0.6840048             -18.6127
         4        2.0000           -0.6020973             -16.3839
         5        2.0000           -0.5887653             -16.0211
         6        2.0000           -0.5663657             -15.4116
         7        2.0000           -0.5191507             -14.1268
         8        2.0000           -0.5029847             -13.6869
         9        2.0000           -0.4905173             -13.3477
        10        2.0000           -0.4675871             -12.7237
        11        1.0000           -0.4137751             -11.2594 (HOMO)
        12        0.0000           -0.3909036             -10.6370 (LUMO)
        13                         -0.3426071              -9.3228
        14                         -0.2573577              -7.0031
        15                         -0.2322916              -6.3210
        16                         -0.1013584              -2.7581
        17                         -0.0625419              -1.7019
        18                          0.4150025              11.2928
        19                          0.4939146              13.4401
        20                          0.7822533              21.2862
      -------------------------------------------------------------
                  HL-Gap            0.0228715 Eh            0.6224 eV

     #   Z        covCN         q      C6AA      Î±(0)
     1   7 N      0.911    -0.193    25.181     7.258
     2   6 C      3.771     0.235    16.983     5.872
     3   6 C      2.911     0.127    25.225     8.236
     4   6 C      1.993    -0.085    33.363     9.328
     5   6 C      1.993    -0.085    33.363     9.328

Wiberg/Mayer (AO) data.
largest (>0.10) Wiberg bond orders for each atom
          total WBO             WBO to atom ...

molecular dipole:
                 x           y           z       tot (Debye)
 q only:       -0.410       0.181       0.140
   full:       -0.852       0.377       0.453       2.634
Molecule has the following symmetry elements: (sigma)
It seems to be the Cs point group

 projected vibrational frequencies (cm-1)
eigval :       -0.00    -0.00    -0.00     0.00     0.00     0.00
eigval :     -311.89   264.67   365.02   401.00   478.17   651.71
eigval :     1415.54  1576.51  1947.29

   temp. (K)  partition function   enthalpy   heat capacity  entropy
                                   cal/mol     cal/K/mol   cal/K/mol   J/K/mol
  10.00  VIB   1.00                    0.000      0.000     -0.003
         ROT   226.                   29.809      2.981     13.753
         INT   226.                   29.809      2.981     13.750
         TR   0.290E+25               49.681      4.968     21.419
         TOT                          79.4904     7.9490    35.1691   147.1477

       T/K    H(0)-H(T)+PV         H(T)/Eh          T*S/Eh         G(T)/Eh
   ------------------------------------------------------------------------
    298.15    0.528215E-02    0.214569E-01    0.318117E-01   -0.103548E-01
    120.00    0.161729E-02    0.177921E-01    0.106252E-01    0.716681E-02
    100.00    0.131110E-02    0.174859E-01    0.857564E-02    0.891023E-02
     80.00    0.102795E-02    0.172027E-01    0.660816E-02    0.105946E-01
     60.00    0.762581E-03    0.169373E-01    0.472740E-02    0.122099E-01
     40.00    0.506797E-03    0.166816E-01    0.294433E-02    0.137372E-01
     20.00    0.253352E-03    0.164281E-01    0.129651E-02    0.151316E-01
     10.00    0.126676E-03    0.163014E-01    0.560456E-03    0.157410E-01 (used)
   ------------------------------------------------------------------------

         :::::::::::::::::::::::::::::::::::::::::::::::::::::
         ::                  THERMODYNAMIC                  ::
         :::::::::::::::::::::::::::::::::::::::::::::::::::::
         :: total free energy         -11.055613983428 Eh   ::
         ::.................................................::
         :: total energy              -11.071354969785 Eh   ::
         :: zero point energy           0.016174766303 Eh   ::
         :: G(RRHO) w/o ZPVE           -0.000433779946 Eh   ::
         :: G(RRHO) contrib.            0.015740986357 Eh   ::
         :::::::::::::::::::::::::::::::::::::::::::::::::::::

           -------------------------------------------------
          | TOTAL ENERGY              -11.071354969785 Eh   |
          | TOTAL ENTHALPY            -11.055053527467 Eh   |
          | TOTAL FREE ENERGY         -11.055613983428 Eh   |
          | GRADIENT NORM               0.000764886422 Eh/Î± |
          | HOMO-LUMO GAP               0.622364573578 eV   |
           -------------------------------------------------

 * finished run on 2020/05/12 at 11:44:08.618
