   * xtb version 6.2.2 (9d81278992624c895f80dd42a50cac0aa55982e2) compiled by '@Darwin' on 04/03/2020
          program call               : xtb --input H2C2N1_7_S_1.input H2C2N1_7_S_1.xyz --ohess --molden --namespace H2C2N1_7_S_1 output.out
          number of atoms            :                     5
          number of electrons        :                    15
          charge                     :                     0
          spin                       :                   0.5

   ID    Z sym.   atoms
    1    7 N      1
    2    6 C      2, 3
    3    1 H      4, 5

          :  Hamiltonian                  GFN2-xTB          :
 * total energy  :    -7.8703579 Eh     change       -0.1747766E-09 Eh
 * total energy  :    -7.9021814 Eh     change       -0.3182355E-01 Eh
 * total energy  :    -7.9179974 Eh     change       -0.1581594E-01 Eh
 * total energy  :    -7.9301661 Eh     change       -0.1216866E-01 Eh
 * total energy  :    -7.9546280 Eh     change       -0.2446191E-01 Eh
 * total energy  :    -7.9785100 Eh     change       -0.2388208E-01 Eh
 * total energy  :    -7.9823690 Eh     change       -0.3859004E-02 Eh
 * total energy  :    -7.9925942 Eh     change       -0.1022516E-01 Eh
 * total energy  :    -7.9932670 Eh     change       -0.6727576E-03 Eh
 * total energy  :    -7.9988431 Eh     change       -0.5576162E-02 Eh
 * total energy  :    -8.0078260 Eh     change       -0.1983756E-02 Eh
 * total energy  :    -8.0084134 Eh     change       -0.5873829E-03 Eh
 * total energy  :    -8.0087071 Eh     change       -0.2936803E-03 Eh
 * total energy  :    -8.0088071 Eh     change       -0.1000675E-03 Eh
 * total energy  :    -8.0088400 Eh     change       -0.3283133E-04 Eh
 * total energy  :    -8.0088639 Eh     change       -0.2391574E-04 Eh
 * total energy  :    -8.0088752 Eh     change       -0.1128567E-04 Eh
 * total energy  :    -8.0088806 Eh     change       -0.5452446E-05 Eh
 * total energy  :    -8.0088816 Eh     change       -0.1012527E-05 Eh
   *** GEOMETRY OPTIMIZATION CONVERGED AFTER 22 ITERATIONS ***

 final structure:
================
5
 xtb: 6.2.2 (9d81278992624c895f80dd42a50cac0aa55982e2)
N        -0.57113554425667   -0.43725509689261    0.21669237479856
C         0.57151089607869    0.31553376747492    0.07875565951782
C        -0.55336486644383    1.02465100037023    0.35842259968805
H        -1.03017736205354   -0.99865806248733   -0.48863367799882
H         1.58316687667535    0.09572839153479   -0.16523695600560

          :  Hamiltonian                  GFN2-xTB          :
         :: gradient norm              0.000236548971 Eh/a0 ::
         :: HOMO-LUMO gap              2.883164031184 eV    ::
         :: SCC energy                -8.118399560214 Eh    ::
         :: -> dispersion             -0.001517640542 Eh    ::
         :: repulsion energy           0.109517885193 Eh    ::

    * Orbital Energies and Occupations

         #    Occupation            Energy/Eh            Energy/eV
      -------------------------------------------------------------
         1        2.0000           -0.6922359             -18.8367
         2        2.0000           -0.6029262             -16.4065
         3        2.0000           -0.5806533             -15.8004
         4        2.0000           -0.5354393             -14.5700
         5        2.0000           -0.4990620             -13.5802
         6        2.0000           -0.4612682             -12.5517
         7        2.0000           -0.4006072             -10.9011
         8        1.0000           -0.3470387              -9.4434 (HOMO)
         9                         -0.2410845              -6.5602 (LUMO)
        10                         -0.0602045              -1.6382
        11                          0.0281673               0.7665
        12                          0.1091035               2.9689
        13                          0.2620432               7.1306
        14                          0.6528373              17.7646
      -------------------------------------------------------------
                  HL-Gap            0.1059542 Eh            2.8832 eV

     #   Z        covCN         q      C6AA      Î±(0)
     1   7 N      2.676    -0.127    23.756     7.239
     2   6 C      2.817     0.068    26.462     8.428
     3   6 C      1.887    -0.146    35.243     9.588
     4   1 H      0.860     0.155     1.368     1.832
     5   1 H      0.927     0.049     2.331     2.387

Wiberg/Mayer (AO) data.
largest (>0.10) Wiberg bond orders for each atom
          total WBO             WBO to atom ...

molecular dipole:
                 x           y           z       tot (Debye)
 q only:        0.208      -0.420      -0.299
   full:        0.538      -0.991      -0.675       3.340

 projected vibrational frequencies (cm-1)
eigval :       -0.00    -0.00    -0.00    -0.00     0.00     0.00
eigval :      601.51   747.64   827.44   905.17   940.47  1235.70
eigval :     1604.73  3215.24  3320.45

   temp. (K)  partition function   enthalpy   heat capacity  entropy
                                   cal/mol     cal/K/mol   cal/K/mol   J/K/mol
  10.00  VIB   1.00                    0.000      0.000     -0.000
         ROT   40.6                   29.809      2.981     10.342
         INT   40.6                   29.809      2.981     10.341
         TR   0.151E+25               49.681      4.968     20.115
         TOT                          79.4904     7.9490    30.4558   127.4272

       T/K    H(0)-H(T)+PV         H(T)/Eh          T*S/Eh         G(T)/Eh
   ------------------------------------------------------------------------
    298.15    0.421870E-02    0.347424E-01    0.278529E-01    0.688947E-02
    120.00    0.152289E-02    0.320466E-01    0.960351E-02    0.224431E-01
    100.00    0.126735E-02    0.317910E-01    0.777007E-02    0.240210E-01
     80.00    0.101347E-02    0.315372E-01    0.598953E-02    0.255476E-01
     60.00    0.760058E-03    0.312838E-01    0.427351E-02    0.270102E-01
     40.00    0.506704E-03    0.310304E-01    0.264361E-02    0.283868E-01
     20.00    0.253352E-03    0.307771E-01    0.114625E-02    0.296308E-01
     10.00    0.126676E-03    0.306504E-01    0.485345E-03    0.301650E-01 (used)
   ------------------------------------------------------------------------

         :::::::::::::::::::::::::::::::::::::::::::::::::::::
         ::                  THERMODYNAMIC                  ::
         :::::::::::::::::::::::::::::::::::::::::::::::::::::
         :: total free energy          -7.978716614064 Eh   ::
         ::.................................................::
         :: total energy               -8.008881643647 Eh   ::
         :: zero point energy           0.030523698214 Eh   ::
         :: G(RRHO) w/o ZPVE           -0.000358668631 Eh   ::
         :: G(RRHO) contrib.            0.030165029583 Eh   ::
         :::::::::::::::::::::::::::::::::::::::::::::::::::::

           -------------------------------------------------
          | TOTAL ENERGY               -8.008881643647 Eh   |
          | TOTAL ENTHALPY             -7.978231269417 Eh   |
          | TOTAL FREE ENERGY          -7.978716614064 Eh   |
          | GRADIENT NORM               0.000236644736 Eh/Î± |
          | HOMO-LUMO GAP               2.883160881621 eV   |
           -------------------------------------------------

 * finished run on 2020/05/12 at 11:44:47.128
