   * xtb version 6.2.2 (9d81278992624c895f80dd42a50cac0aa55982e2) compiled by '@Darwin' on 04/03/2020
          program call               : xtb --input H1C4_5_S_3.input H1C4_5_S_3.xyz --ohess --molden --namespace H1C4_5_S_3 output.out
          number of atoms            :                     5
          number of electrons        :                    17
          charge                     :                     0
          spin                       :                   1.5

   ID    Z sym.   atoms
    1    6 C      1-4
    2    1 H      5

          :  Hamiltonian                  GFN2-xTB          :
 * total energy  :    -8.5194114 Eh     change       -0.5525234E-09 Eh
 * total energy  :    -8.5526830 Eh     change       -0.3327163E-01 Eh
 * total energy  :    -8.5367606 Eh     change        0.1592241E-01 Eh
 * total energy  :    -8.5680588 Eh     change       -0.3129822E-01 Eh
 * total energy  :    -8.5700285 Eh     change       -0.1969700E-02 Eh
 * total energy  :    -8.5710527 Eh     change       -0.1024221E-02 Eh
 * total energy  :    -8.5712033 Eh     change       -0.1505091E-03 Eh
 * total energy  :    -8.5712946 Eh     change       -0.9139768E-04 Eh
 * total energy  :    -8.5712978 Eh     change       -0.3139461E-05 Eh
   *** GEOMETRY OPTIMIZATION CONVERGED AFTER 9 ITERATIONS ***

 final structure:
================
5
 xtb: 6.2.2 (9d81278992624c895f80dd42a50cac0aa55982e2)
C         1.33119737742495   -0.74339754239185   -0.01340359039636
C         0.33772107223849    0.11677492433269   -0.00837978853123
C        -1.11328709231786   -0.29514467824428   -0.61199134837610
C        -1.08879250593874   -0.27430810923003    0.66352711346331
H         0.53316014859316    1.19607540553347   -0.02975238615963

          :  Hamiltonian                  GFN2-xTB          :
         :: gradient norm              0.000459678127 Eh/a0 ::
         :: HOMO-LUMO gap              1.228522894730 eV    ::
         :: SCC energy                -8.725441213497 Eh    ::
         :: -> dispersion             -0.002185576271 Eh    ::
         :: repulsion energy           0.154143362361 Eh    ::

    * Orbital Energies and Occupations

         #    Occupation            Energy/Eh            Energy/eV
      -------------------------------------------------------------
         1        2.0000           -0.6992526             -19.0276
         2        2.0000           -0.6530344             -17.7700
         3        2.0000           -0.5824963             -15.8505
         4        2.0000           -0.5462587             -14.8645
         5        2.0000           -0.5332585             -14.5107
         6        2.0000           -0.4660772             -12.6826
         7        2.0000           -0.4537004             -12.3458
         8        1.0000           -0.4266379             -11.6094
         9        1.0000           -0.3951260             -10.7519
        10        1.0000           -0.3530463              -9.6069 (HOMO)
        11                         -0.3078988              -8.3784 (LUMO)
        12                         -0.2433371              -6.6215
        13                         -0.0917454              -2.4965
        14                         -0.0232083              -0.6315
        15                          0.1732308               4.7139
        16                          0.5364459              14.5974
        17                          0.6361394              17.3102
      -------------------------------------------------------------
                  HL-Gap            0.0451475 Eh            1.2285 eV

     #   Z        covCN         q      C6AA      Î±(0)
     1   6 C      0.984    -0.108    39.386    10.543
     2   6 C      3.820     0.079    19.255     6.245
     3   6 C      1.940    -0.039    32.127     9.153
     4   6 C      1.940    -0.039    32.127     9.153
     5   1 H      0.924     0.107     1.723     2.053

Wiberg/Mayer (AO) data.
largest (>0.10) Wiberg bond orders for each atom
          total WBO             WBO to atom ...

molecular dipole:
                 x           y           z       tot (Debye)
 q only:        0.048       0.453      -0.008
   full:        0.142       0.642      -0.013       1.672

 projected vibrational frequencies (cm-1)
eigval :       -0.00    -0.00    -0.00     0.00     0.00     0.00
eigval :     -300.21   250.19   455.87   584.67   676.09  1095.72
eigval :     1445.42  1797.30  2782.14

   temp. (K)  partition function   enthalpy   heat capacity  entropy
                                   cal/mol     cal/K/mol   cal/K/mol   J/K/mol
  10.00  VIB   1.00                    0.000      0.000     -0.003
         ROT   112.                   29.809      2.981     12.358
         INT   112.                   29.809      2.981     12.355
         TR   0.204E+25               49.681      4.968     20.719
         TOT                          79.4904     7.9490    33.0745   138.3835

       T/K    H(0)-H(T)+PV         H(T)/Eh          T*S/Eh         G(T)/Eh
   ------------------------------------------------------------------------
    298.15    0.484613E-02    0.255487E-01    0.301511E-01   -0.460232E-02
    120.00    0.159203E-02    0.222946E-01    0.101952E-01    0.120994E-01
    100.00    0.130252E-02    0.220051E-01    0.823236E-02    0.137728E-01
     80.00    0.102688E-02    0.217295E-01    0.634012E-02    0.153894E-01
     60.00    0.762930E-03    0.214655E-01    0.452753E-02    0.169380E-01
     40.00    0.506845E-03    0.212094E-01    0.281084E-02    0.183986E-01
     20.00    0.253352E-03    0.209560E-01    0.122975E-02    0.197262E-01
     10.00    0.126676E-03    0.208293E-01    0.527075E-03    0.203022E-01 (used)
   ------------------------------------------------------------------------

         :::::::::::::::::::::::::::::::::::::::::::::::::::::
         ::                  THERMODYNAMIC                  ::
         :::::::::::::::::::::::::::::::::::::::::::::::::::::
         :: total free energy          -8.550995582813 Eh   ::
         ::.................................................::
         :: total energy               -8.571297788743 Eh   ::
         :: zero point energy           0.020702604910 Eh   ::
         :: G(RRHO) w/o ZPVE           -0.000400398980 Eh   ::
         :: G(RRHO) contrib.            0.020302205930 Eh   ::
         :::::::::::::::::::::::::::::::::::::::::::::::::::::

           -------------------------------------------------
          | TOTAL ENERGY               -8.571297788743 Eh   |
          | TOTAL ENTHALPY             -8.550468507818 Eh   |
          | TOTAL FREE ENERGY          -8.550995582813 Eh   |
          | GRADIENT NORM               0.000459562180 Eh/Î± |
          | HOMO-LUMO GAP               1.228526248409 eV   |
           -------------------------------------------------

 * finished run on 2020/05/12 at 11:45:10.246
