   * xtb version 6.2.2 (9d81278992624c895f80dd42a50cac0aa55982e2) compiled by '@Darwin' on 04/03/2020
          program call               : xtb --input H2C2N1_6_S_1.input H2C2N1_6_S_1.xyz --ohess --molden --namespace H2C2N1_6_S_1 output.out
          number of atoms            :                     5
          number of electrons        :                    15
          charge                     :                     0
          spin                       :                   0.5

   ID    Z sym.   atoms
    1    7 N      1
    2    6 C      2, 3
    3    1 H      4, 5

          :  Hamiltonian                  GFN2-xTB          :
 * total energy  :    -7.7818665 Eh     change       -0.5331930E-09 Eh
 * total energy  :    -7.8060123 Eh     change       -0.2414586E-01 Eh
 * total energy  :    -7.8720367 Eh     change       -0.6602437E-01 Eh
 * total energy  :    -7.9384219 Eh     change       -0.6638516E-01 Eh
 * total energy  :    -7.8039933 Eh     change        0.1344286E+00 Eh
 * total energy  :    -7.9523279 Eh     change       -0.1483346E+00 Eh
 * total energy  :    -7.9550848 Eh     change       -0.2756932E-02 Eh
 * total energy  :    -7.9555989 Eh     change       -0.5140426E-03 Eh
 * total energy  :    -7.9556489 Eh     change       -0.5005969E-04 Eh
 * total energy  :    -7.9556595 Eh     change       -0.1061957E-04 Eh
 * total energy  :    -7.9556596 Eh     change       -0.8991149E-07 Eh
   *** GEOMETRY OPTIMIZATION CONVERGED AFTER 11 ITERATIONS ***

 final structure:
================
5
 xtb: 6.2.2 (9d81278992624c895f80dd42a50cac0aa55982e2)
N        -0.01040059001527    0.33328270237081    0.03989612562428
C         0.67754488323683   -1.02386085757807   -0.11659472743742
C        -0.61244758344227   -1.06213838469708   -0.13311307717534
H        -0.01951347475039    0.97805059579594   -0.74256515073245
H        -0.03518223502891    0.77466594410840    0.95237682972092

          :  Hamiltonian                  GFN2-xTB          :
         :: gradient norm              0.000058923355 Eh/a0 ::
         :: HOMO-LUMO gap              4.083039243462 eV    ::
         :: SCC energy                -8.067911058886 Eh    ::
         :: -> dispersion             -0.001514429346 Eh    ::
         :: repulsion energy           0.112251399508 Eh    ::

    * Orbital Energies and Occupations

         #    Occupation            Energy/Eh            Energy/eV
      -------------------------------------------------------------
         1        2.0000           -0.6769333             -18.4203
         2        2.0000           -0.6276808             -17.0801
         3        2.0000           -0.5787322             -15.7481
         4        2.0000           -0.5332992             -14.5118
         5        2.0000           -0.4985644             -13.5666
         6        2.0000           -0.4071462             -11.0790
         7        2.0000           -0.3907077             -10.6317
         8        1.0000           -0.3421186              -9.3095 (HOMO)
         9                         -0.1920696              -5.2265 (LUMO)
        10                         -0.0924381              -2.5154
        11                         -0.0707103              -1.9241
        12                          0.1128833               3.0717
        13                          0.1851322               5.0377
        14                          0.6459777              17.5779
Molecule has the following symmetry elements: (C2) 2*(sigma)
It seems to be the C2v point group
      -------------------------------------------------------------
                  HL-Gap            0.1500489 Eh            4.0830 eV

     #   Z        covCN         q      C6AA      Î±(0)
     1   7 N      3.520    -0.093    23.057     7.132
     2   6 C      1.881    -0.111    34.217     9.448
     3   6 C      1.881    -0.111    34.217     9.448
     4   1 H      0.860     0.158     1.349     1.819
     5   1 H      0.860     0.158     1.349     1.819

Wiberg/Mayer (AO) data.
largest (>0.10) Wiberg bond orders for each atom
          total WBO             WBO to atom ...

molecular dipole:
                 x           y           z       tot (Debye)
 q only:       -0.028       0.902       0.108
   full:       -0.049       1.564       0.187       4.005

 projected vibrational frequencies (cm-1)
eigval :       -0.00    -0.00     0.00     0.00     0.00     0.00
eigval :      402.17   742.73   832.64   937.10   990.89  1483.40
eigval :     1769.66  3346.09  3351.59

   temp. (K)  partition function   enthalpy   heat capacity  entropy
                                   cal/mol     cal/K/mol   cal/K/mol   J/K/mol
  10.00  VIB   1.00                    0.000      0.000     -0.001
         ROT   20.9                   29.809      2.981      9.021
         INT   20.9                   29.809      2.981      9.020
         TR   0.151E+25               49.681      4.968     20.115
         TOT                          79.4904     7.9490    29.1345   121.8988

       T/K    H(0)-H(T)+PV         H(T)/Eh          T*S/Eh         G(T)/Eh
   ------------------------------------------------------------------------
    298.15    0.434213E-02    0.359091E-01    0.274362E-01    0.847289E-02
    120.00    0.153571E-02    0.331026E-01    0.936651E-02    0.237361E-01
    100.00    0.127251E-02    0.328394E-01    0.756565E-02    0.252738E-01
     80.00    0.101474E-02    0.325817E-01    0.582257E-02    0.267591E-01
     60.00    0.760175E-03    0.323271E-01    0.414733E-02    0.281798E-01
     40.00    0.506705E-03    0.320736E-01    0.255940E-02    0.295142E-01
     20.00    0.253352E-03    0.318203E-01    0.110414E-02    0.307161E-01
     10.00    0.126676E-03    0.316936E-01    0.464288E-03    0.312293E-01 (used)
   ------------------------------------------------------------------------

         :::::::::::::::::::::::::::::::::::::::::::::::::::::
         ::                  THERMODYNAMIC                  ::
         :::::::::::::::::::::::::::::::::::::::::::::::::::::
         :: total free energy          -7.924430331597 Eh   ::
         ::.................................................::
         :: total energy               -7.955659639310 Eh   ::
         :: zero point energy           0.031566919557 Eh   ::
         :: G(RRHO) w/o ZPVE           -0.000337611843 Eh   ::
         :: G(RRHO) contrib.            0.031229307714 Eh   ::
         :::::::::::::::::::::::::::::::::::::::::::::::::::::

           -------------------------------------------------
          | TOTAL ENERGY               -7.955659639310 Eh   |
          | TOTAL ENTHALPY             -7.923966043738 Eh   |
          | TOTAL FREE ENERGY          -7.924430331597 Eh   |
          | GRADIENT NORM               0.000058885794 Eh/Î± |
          | HOMO-LUMO GAP               4.083039587491 eV   |
           -------------------------------------------------

 * finished run on 2020/05/12 at 11:44:46.830
