   * xtb version 6.2.2 (9d81278992624c895f80dd42a50cac0aa55982e2) compiled by '@Darwin' on 04/03/2020
          program call               : xtb --input H2C1N1_0_S_1.input H2C1N1_0_S_1.xyz --ohess --molden --namespace H2C1N1_0_S_1 output.out
          number of atoms            :                     4
          number of electrons        :                    11
          charge                     :                     0
          spin                       :                   0.5

   ID    Z sym.   atoms
    1    6 C      1
    2    7 N      2
    3    1 H      3, 4

          :  Hamiltonian                  GFN2-xTB          :
 * total energy  :    -5.8838763 Eh     change        0.4058940E-09 Eh
 * total energy  :    -5.9421824 Eh     change       -0.5830603E-01 Eh
 * total energy  :    -5.9312500 Eh     change        0.1093242E-01 Eh
 * total energy  :    -5.9555837 Eh     change       -0.2433375E-01 Eh
 * total energy  :    -5.9566494 Eh     change       -0.1065702E-02 Eh
 * total energy  :    -5.9570613 Eh     change       -0.4118576E-03 Eh
 * total energy  :    -5.9570907 Eh     change       -0.2947729E-04 Eh
 * total energy  :    -5.9570979 Eh     change       -0.7173662E-05 Eh
 * total energy  :    -5.9570979 Eh     change       -0.6927398E-08 Eh
   *** GEOMETRY OPTIMIZATION CONVERGED AFTER 9 ITERATIONS ***

 final structure:
================
4
 xtb: 6.2.2 (9d81278992624c895f80dd42a50cac0aa55982e2)
C         0.00252569671950   -0.00020093981858    0.00002083711890
N         1.21188182676428   -0.09637156113501    0.03289905537912
H        -0.53508491532960    0.95622714921229   -0.01342078893344
H        -0.67932260815418   -0.85965564825871   -0.01949910356457

          :  Hamiltonian                  GFN2-xTB          :
         :: gradient norm              0.000022424321 Eh/a0 ::
         :: HOMO-LUMO gap              3.331531064954 eV    ::
         :: SCC energy                -6.051938118049 Eh    ::
         :: -> dispersion             -0.000720418575 Eh    ::
         :: repulsion energy           0.094840194515 Eh    ::

    * Orbital Energies and Occupations

         #    Occupation            Energy/Eh            Energy/eV
      -------------------------------------------------------------
         1        2.0000           -0.6536495             -17.7867
         2        2.0000           -0.5774467             -15.7131
         3        2.0000           -0.5365921             -14.6014
         4        2.0000           -0.4840561             -13.1718
         5        2.0000           -0.4349197             -11.8348
         6        1.0000           -0.3699454             -10.0667 (HOMO)
         7                         -0.2475140              -6.7352 (LUMO)
         8                          0.1178776               3.2076
         9                          0.2357927               6.4162
        10                          0.6346409              17.2695
      -------------------------------------------------------------
                  HL-Gap            0.1224314 Eh            3.3315 eV

     #   Z        covCN         q      C6AA      Î±(0)
     1   6 C      2.758     0.047    26.925     8.497
     2   7 N      0.910    -0.218    25.756     7.340
     3   1 H      0.924     0.085     1.924     2.169
     4   1 H      0.924     0.085     1.924     2.169
Molecule has the following symmetry elements: (C2) 2*(sigma)
It seems to be the C2v point group

Wiberg/Mayer (AO) data.
largest (>0.10) Wiberg bond orders for each atom
          total WBO             WBO to atom ...

molecular dipole:
                 x           y           z       tot (Debye)
 q only:       -0.695       0.055      -0.019
   full:       -1.182       0.094      -0.032       3.015

 projected vibrational frequencies (cm-1)
eigval :       -0.00    -0.00    -0.00    -0.00     0.00     0.00
eigval :      850.76   938.41  1295.13  1853.25  2779.51  2845.07

   temp. (K)  partition function   enthalpy   heat capacity  entropy
                                   cal/mol     cal/K/mol   cal/K/mol   J/K/mol
  10.00  VIB   1.00                    0.000      0.000     -0.000
         ROT   4.04                   29.809      2.981      5.758
         INT   4.04                   29.809      2.981      5.757
         TR   0.882E+24               49.681      4.968     19.052
         TOT                          79.4904     7.9490    24.8096   103.8033

       T/K    H(0)-H(T)+PV         H(T)/Eh          T*S/Eh         G(T)/Eh
   ------------------------------------------------------------------------
    298.15    0.390103E-02    0.279633E-01    0.247585E-01    0.320488E-02
    120.00    0.152031E-02    0.255826E-01    0.852081E-02    0.170618E-01
    100.00    0.126678E-02    0.253291E-01    0.686963E-02    0.184595E-01
     80.00    0.101341E-02    0.250757E-01    0.526961E-02    0.198061E-01
     60.00    0.760056E-03    0.248224E-01    0.373362E-02    0.210887E-01
     40.00    0.506704E-03    0.245690E-01    0.228369E-02    0.222853E-01
     20.00    0.253352E-03    0.243157E-01    0.966289E-03    0.233494E-01
     10.00    0.126676E-03    0.241890E-01    0.395366E-03    0.237936E-01 (used)
   ------------------------------------------------------------------------

         :::::::::::::::::::::::::::::::::::::::::::::::::::::
         ::                  THERMODYNAMIC                  ::
         :::::::::::::::::::::::::::::::::::::::::::::::::::::
         :: total free energy          -5.933304293938 Eh   ::
         ::.................................................::
         :: total energy               -5.957097919168 Eh   ::
         :: zero point energy           0.024062315183 Eh   ::
         :: G(RRHO) w/o ZPVE           -0.000268689953 Eh   ::
         :: G(RRHO) contrib.            0.023793625230 Eh   ::
         :::::::::::::::::::::::::::::::::::::::::::::::::::::

           -------------------------------------------------
          | TOTAL ENERGY               -5.957097919168 Eh   |
          | TOTAL ENTHALPY             -5.932908927969 Eh   |
          | TOTAL FREE ENERGY          -5.933304293938 Eh   |
          | GRADIENT NORM               0.000022441129 Eh/Î± |
          | HOMO-LUMO GAP               3.331528139999 eV   |
           -------------------------------------------------

 * finished run on 2020/05/12 at 11:43:49.974
