   * xtb version 6.2.2 (9d81278992624c895f80dd42a50cac0aa55982e2) compiled by '@Darwin' on 04/03/2020
          program call               : xtb --input H1N1O1_0_S_2.input H1N1O1_0_S_2.xyz --ohess --molden --namespace H1N1O1_0_S_2 output.out
          number of atoms            :                     3
          number of electrons        :                    12
          charge                     :                     0
          spin                       :                   1.0

   ID    Z sym.   atoms
    1    8 O      1
    2    7 N      2
    3    1 H      3

          :  Hamiltonian                  GFN2-xTB          :
 * total energy  :    -7.2847230 Eh     change       -0.3641709E-10 Eh
 * total energy  :    -7.2871887 Eh     change       -0.2465767E-02 Eh
 * total energy  :    -7.2880754 Eh     change       -0.8866859E-03 Eh
 * total energy  :    -7.2881766 Eh     change       -0.1011409E-03 Eh
 * total energy  :    -7.2881957 Eh     change       -0.1915444E-04 Eh
 * total energy  :    -7.2881957 Eh     change       -0.2485581E-07 Eh
   *** GEOMETRY OPTIMIZATION CONVERGED AFTER 6 ITERATIONS ***

 final structure:
================
3
 xtb: 6.2.2 (9d81278992624c895f80dd42a50cac0aa55982e2)
O        -0.15383780428122    0.39699860934345    0.00000000000000
N         1.02719790327304   -0.13752757011415    0.00000000000000
H        -0.87336009899182   -0.25947103922930    0.00000000000000

          :  Hamiltonian                  GFN2-xTB          :
         :: gradient norm              0.000005903005 Eh/a0 ::
         :: HOMO-LUMO gap             10.366788679535 eV    ::
         :: SCC energy                -7.311063315445 Eh    ::
         :: -> dispersion             -0.000358529739 Eh    ::
         :: repulsion energy           0.022867583713 Eh    ::

    * Orbital Energies and Occupations

         #    Occupation            Energy/Eh            Energy/eV
      -------------------------------------------------------------
         1        2.0000           -0.7602900             -20.6885
         2        2.0000           -0.6762698             -18.4022
         3        2.0000           -0.6105174             -16.6130
         4        2.0000           -0.5700996             -15.5132
         5        2.0000           -0.4801868             -13.0665
         6        1.0000           -0.3840448             -10.4504
         7        1.0000           -0.3507813              -9.5452 (HOMO)
Molecule has the following symmetry elements: (sigma)
It seems to be the Cs point group
         8                          0.0301911               0.8215 (LUMO)
         9                          0.1632481               4.4422
      -------------------------------------------------------------
                  HL-Gap            0.3809724 Eh           10.3668 eV

     #   Z        covCN         q      C6AA      Î±(0)
     1   8 O      1.725    -0.202    17.368     5.627
     2   7 N      0.922    -0.131    23.793     7.049
     3   1 H      0.804     0.334     0.628     1.245

Wiberg/Mayer (AO) data.
largest (>0.10) Wiberg bond orders for each atom
          total WBO             WBO to atom ...

molecular dipole:
                 x           y           z       tot (Debye)
 q only:       -0.747      -0.281       0.000
   full:       -1.100      -0.352       0.000       2.936

 projected vibrational frequencies (cm-1)
eigval :       -0.00    -0.00    -0.00    -0.00     0.00     0.00
eigval :     1030.01  1340.69  3293.28

   temp. (K)  partition function   enthalpy   heat capacity  entropy
                                   cal/mol     cal/K/mol   cal/K/mol   J/K/mol
  10.00  VIB   1.00                    0.000      0.000     -0.000
         ROT   5.55                   29.809      2.981      6.387
         INT   5.55                   29.809      2.981      6.387
         TR   0.103E+25               49.681      4.968     19.353
         TOT                          79.4904     7.9490    25.7406   107.6985

       T/K    H(0)-H(T)+PV         H(T)/Eh          T*S/Eh         G(T)/Eh
   ------------------------------------------------------------------------
    298.15    0.381912E-02    0.167226E-01    0.250990E-01   -0.837637E-02
    120.00    0.152013E-02    0.144237E-01    0.869863E-02    0.572502E-02
    100.00    0.126676E-02    0.141703E-01    0.701796E-02    0.715232E-02
     80.00    0.101341E-02    0.139169E-01    0.538830E-02    0.852863E-02
     60.00    0.760056E-03    0.136636E-01    0.382263E-02    0.984094E-02
     40.00    0.506704E-03    0.134102E-01    0.234303E-02    0.110672E-01
     20.00    0.253352E-03    0.131569E-01    0.995960E-03    0.121609E-01
     10.00    0.126676E-03    0.130302E-01    0.410202E-03    0.126200E-01 (used)
   ------------------------------------------------------------------------

         :::::::::::::::::::::::::::::::::::::::::::::::::::::
         ::                  THERMODYNAMIC                  ::
         :::::::::::::::::::::::::::::::::::::::::::::::::::::
         :: total free energy          -7.275575739621 Eh   ::
         ::.................................................::
         :: total energy               -7.288195731676 Eh   ::
         :: zero point energy           0.012903517859 Eh   ::
         :: G(RRHO) w/o ZPVE           -0.000283525804 Eh   ::
         :: G(RRHO) contrib.            0.012619992055 Eh   ::
         :::::::::::::::::::::::::::::::::::::::::::::::::::::

           -------------------------------------------------
          | TOTAL ENERGY               -7.288195731676 Eh   |
          | TOTAL ENTHALPY             -7.275165537801 Eh   |
          | TOTAL FREE ENERGY          -7.275575739621 Eh   |
          | GRADIENT NORM               0.000005854922 Eh/Î± |
          | HOMO-LUMO GAP              10.366786952634 eV   |
           -------------------------------------------------

 * finished run on 2020/05/12 at 11:44:44.038
