   * xtb version 6.2.2 (9d81278992624c895f80dd42a50cac0aa55982e2) compiled by '@Darwin' on 04/03/2020
          program call               : xtb --input H2C2N1_8_S_1.input H2C2N1_8_S_1.xyz --ohess --molden --namespace H2C2N1_8_S_1 output.out
          number of atoms            :                     5
          number of electrons        :                    15
          charge                     :                     0
          spin                       :                   0.5

   ID    Z sym.   atoms
    1    7 N      1
    2    6 C      2, 3
    3    1 H      4, 5

          :  Hamiltonian                  GFN2-xTB          :
 * total energy  :    -7.9416774 Eh     change        0.1682485E-09 Eh
 * total energy  :    -8.0157840 Eh     change       -0.7410658E-01 Eh
 * total energy  :    -8.0361725 Eh     change       -0.2038854E-01 Eh
 * total energy  :    -8.0539628 Eh     change       -0.1779024E-01 Eh
 * total energy  :    -8.0650328 Eh     change       -0.1106999E-01 Eh
 * total energy  :    -8.0678575 Eh     change       -0.2824703E-02 Eh
 * total energy  :    -8.0692057 Eh     change       -0.1348241E-02 Eh
 * total energy  :    -8.0699175 Eh     change       -0.7118351E-03 Eh
 * total energy  :    -8.0699734 Eh     change       -0.5589104E-04 Eh
 * total energy  :    -8.0701835 Eh     change       -0.2100584E-03 Eh
 * total energy  :    -8.0701985 Eh     change       -0.1500746E-04 Eh
 * total energy  :    -8.0702077 Eh     change       -0.9221350E-05 Eh
 * total energy  :    -8.0702105 Eh     change       -0.2829651E-05 Eh
 * total energy  :    -8.0702125 Eh     change       -0.1955115E-05 Eh
   *** GEOMETRY OPTIMIZATION CONVERGED AFTER 14 ITERATIONS ***

 final structure:
================
5
 xtb: 6.2.2 (9d81278992624c895f80dd42a50cac0aa55982e2)
N         0.75340583290973   -0.01622002347844    0.02045660583818
C        -0.54322543933795    0.01287094221636   -0.01353670938275
C         1.93789554780948   -0.04462846164908    0.05292331423097
H        -1.10090697846547   -0.87277372824037    0.23498329948635
H        -1.04716996291579    0.92075227115153   -0.29482651017276

          :  Hamiltonian                  GFN2-xTB          :
         :: gradient norm              0.000902281878 Eh/a0 ::
         :: HOMO-LUMO gap              3.649984600765 eV    ::
         :: SCC energy                -8.219312704987 Eh    ::
         :: -> dispersion             -0.001567911418 Eh    ::
         :: repulsion energy           0.149100191533 Eh    ::

    * Orbital Energies and Occupations

         #    Occupation            Energy/Eh            Energy/eV
      -------------------------------------------------------------
         1        2.0000           -0.6750554             -18.3692
         2        2.0000           -0.6420379             -17.4707
         3        2.0000           -0.5606681             -15.2566
         4        2.0000           -0.5513758             -15.0037
         5        2.0000           -0.5258410             -14.3089
         6        2.0000           -0.4591117             -12.4931
         7        2.0000           -0.4316823             -11.7467
         8        1.0000           -0.3576834              -9.7331 (HOMO)
         9                         -0.2235490              -6.0831 (LUMO)
        10                         -0.1828601              -4.9759
        11                          0.0889959               2.4217
        12                          0.2324032               6.3240
        13                          0.2973919               8.0924
        14                          1.0013261              27.2475
      -------------------------------------------------------------
                  HL-Gap            0.1341344 Eh            3.6500 eV

     #   Z        covCN         q      C6AA      Î±(0)
     1   7 N      1.821     0.052    20.999     6.790
     2   6 C      2.768    -0.031    28.761     8.783
     3   6 C      0.916    -0.157    40.559    10.661
     4   1 H      0.926     0.068     2.105     2.269
     5   1 H      0.926     0.068     2.105     2.269

Wiberg/Mayer (AO) data.
largest (>0.10) Wiberg bond orders for each atom
          total WBO             WBO to atom ...

molecular dipole:
                 x           y           z       tot (Debye)
 q only:       -0.745       0.017      -0.021
   full:       -1.237       0.028      -0.034       3.145

 projected vibrational frequencies (cm-1)
eigval :       -0.00    -0.00     0.00     0.00     0.00     0.00
eigval :      310.39   324.07   635.69  1025.35  1211.31  1376.19
eigval :     2041.82  3097.31  3129.12

   temp. (K)  partition function   enthalpy   heat capacity  entropy
                                   cal/mol     cal/K/mol   cal/K/mol   J/K/mol
  10.00  VIB   1.00                    0.000      0.000     -0.002
         ROT   13.7                   29.809      2.981      8.187
         INT   13.7                   29.809      2.981      8.185
         TR   0.151E+25               49.681      4.968     20.115
         TOT                          79.4904     7.9490    28.2995   118.4053

       T/K    H(0)-H(T)+PV         H(T)/Eh          T*S/Eh         G(T)/Eh
   ------------------------------------------------------------------------
    298.15    0.477455E-02    0.347353E-01    0.277800E-01    0.695532E-02
    120.00    0.158758E-02    0.315484E-01    0.927338E-02    0.222750E-01
    100.00    0.129759E-02    0.312584E-01    0.746373E-02    0.237946E-01
     80.00    0.102314E-02    0.309839E-01    0.572631E-02    0.252576E-01
     60.00    0.761508E-03    0.307223E-01    0.406918E-02    0.266531E-01
     40.00    0.506737E-03    0.304675E-01    0.250630E-02    0.279612E-01
     20.00    0.253352E-03    0.302141E-01    0.107755E-02    0.291366E-01
     10.00    0.126676E-03    0.300875E-01    0.450982E-03    0.296365E-01 (used)
   ------------------------------------------------------------------------

         :::::::::::::::::::::::::::::::::::::::::::::::::::::
         ::                  THERMODYNAMIC                  ::
         :::::::::::::::::::::::::::::::::::::::::::::::::::::
         :: total free energy          -8.040576025711 Eh   ::
         ::.................................................::
         :: total energy               -8.070212495143 Eh   ::
         :: zero point energy           0.029960775378 Eh   ::
         :: G(RRHO) w/o ZPVE           -0.000324305945 Eh   ::
         :: G(RRHO) contrib.            0.029636469432 Eh   ::
         :::::::::::::::::::::::::::::::::::::::::::::::::::::

           -------------------------------------------------
          | TOTAL ENERGY               -8.070212495143 Eh   |
          | TOTAL ENTHALPY             -8.040125043750 Eh   |
          | TOTAL FREE ENERGY          -8.040576025711 Eh   |
          | GRADIENT NORM               0.000902297791 Eh/Î± |
          | HOMO-LUMO GAP               3.649984085281 eV   |
           -------------------------------------------------

 * finished run on 2020/05/12 at 11:44:47.416
