   * xtb version 6.2.2 (9d81278992624c895f80dd42a50cac0aa55982e2) compiled by '@Darwin' on 04/03/2020
          program call               : xtb --input H2C2N1_9_S_3.input H2C2N1_9_S_3.xyz --ohess --molden --namespace H2C2N1_9_S_3 output.out
          number of atoms            :                     5
          number of electrons        :                    15
          charge                     :                     0
          spin                       :                   1.5

   ID    Z sym.   atoms
    1    7 N      1
    2    6 C      2, 3
    3    1 H      4, 5

          :  Hamiltonian                  GFN2-xTB          :
 * total energy  :    -7.8295170 Eh     change        0.1423095E-08 Eh
 * total energy  :    -7.8658808 Eh     change       -0.3636376E-01 Eh
 * total energy  :    -7.8940428 Eh     change       -0.2816200E-01 Eh
 * total energy  :    -7.9126905 Eh     change       -0.1864770E-01 Eh
 * total energy  :    -7.9236283 Eh     change       -0.1093784E-01 Eh
 * total energy  :    -7.9313113 Eh     change       -0.7682984E-02 Eh
 * total energy  :    -7.9363527 Eh     change       -0.5041410E-02 Eh
 * total energy  :    -7.9389516 Eh     change       -0.2598903E-02 Eh
 * total energy  :    -7.9395986 Eh     change       -0.6470064E-03 Eh
 * total energy  :    -7.9388080 Eh     change        0.7906104E-03 Eh
 * total energy  :    -7.9396395 Eh     change       -0.8315044E-03 Eh
 * total energy  :    -7.9396389 Eh     change        0.5678941E-06 Eh
 * total energy  :    -7.9396473 Eh     change       -0.8314017E-05 Eh
 * total energy  :    -7.9396474 Eh     change       -0.1380069E-06 Eh
   *** GEOMETRY OPTIMIZATION CONVERGED AFTER 14 ITERATIONS ***

 final structure:
================
5
 xtb: 6.2.2 (9d81278992624c895f80dd42a50cac0aa55982e2)
N         0.01085859860024    0.53897083830380    0.53307234853331
C        -1.18264083993650    0.27697575996806    0.19263880553889
C         1.19173165853101    0.17158619963873    0.25111527416677
H        -1.58433121016478   -0.42375994234928   -0.52727039385453
H         1.56438179297004   -0.56377285556131   -0.44955703438444

          :  Hamiltonian                  GFN2-xTB          :
         :: gradient norm              0.000069011640 Eh/a0 ::
         :: HOMO-LUMO gap              3.334021890948 eV    ::
         :: SCC energy                -8.060703242566 Eh    ::
         :: -> dispersion             -0.001568830655 Eh    ::
         :: repulsion energy           0.121055812850 Eh    ::

    * Orbital Energies and Occupations

         #    Occupation            Energy/Eh            Energy/eV
      -------------------------------------------------------------
         1        2.0000           -0.6638113             -18.0632
         2        2.0000           -0.6169388             -16.7878
         3        2.0000           -0.5569595             -15.1556
         4        2.0000           -0.5201522             -14.1541
         5        2.0000           -0.5135789             -13.9752
         6        2.0000           -0.4788967             -13.0314
         7        1.0000           -0.3502231              -9.5301
         8        1.0000           -0.3467310              -9.4350
         9        1.0000           -0.3215214              -8.7490 (HOMO)
        10                         -0.1989984              -5.4150 (LUMO)
        11                          0.1542264               4.1967
        12                          0.2010928               5.4720
        13                          0.3250446               8.8449
        14                          0.7467958              20.3213
      -------------------------------------------------------------
                  HL-Gap            0.1225231 Eh            3.3340 eV

     #   Z        covCN         q      C6AA      Î±(0)
     1   7 N      1.821    -0.020    22.336     7.003
     2   6 C      1.858    -0.054    32.596     9.222
     3   6 C      1.858    -0.054    32.596     9.222
     4   1 H      0.925     0.064     2.155     2.296
     5   1 H      0.925     0.064     2.155     2.296

Wiberg/Mayer (AO) data.
largest (>0.10) Wiberg bond orders for each atom
          total WBO             WBO to atom ...

molecular dipole:
                 x           y           z       tot (Debye)
Molecule has the following symmetry elements: (C2) 2*(sigma)
It seems to be the C2v point group
 q only:       -0.004      -0.185      -0.183
   full:       -0.011      -0.536      -0.530       1.916

 projected vibrational frequencies (cm-1)
eigval :       -0.00    -0.00    -0.00     0.00     0.00     0.00
eigval :      426.41   582.22   753.23   890.59   946.76  1391.16
eigval :     1580.49  2915.46  2942.94

   temp. (K)  partition function   enthalpy   heat capacity  entropy
                                   cal/mol     cal/K/mol   cal/K/mol   J/K/mol
  10.00  VIB   1.00                    0.000      0.000     -0.001
         ROT   20.1                   29.809      2.981      8.948
         INT   20.1                   29.809      2.981      8.948
         TR   0.151E+25               49.681      4.968     20.115
         TOT                          79.4904     7.9490    29.0623   121.5966

       T/K    H(0)-H(T)+PV         H(T)/Eh          T*S/Eh         G(T)/Eh
   ------------------------------------------------------------------------
    298.15    0.443682E-02    0.327528E-01    0.275246E-01    0.522814E-02
    120.00    0.153490E-02    0.298508E-01    0.935146E-02    0.204994E-01
    100.00    0.127167E-02    0.295876E-01    0.755308E-02    0.220345E-01
     80.00    0.101440E-02    0.293303E-01    0.581296E-02    0.235174E-01
     60.00    0.760129E-03    0.290761E-01    0.414037E-02    0.249357E-01
     40.00    0.506704E-03    0.288226E-01    0.255480E-02    0.262678E-01
     20.00    0.253352E-03    0.285693E-01    0.110184E-02    0.274675E-01
     10.00    0.126676E-03    0.284426E-01    0.463137E-03    0.279795E-01 (used)
   ------------------------------------------------------------------------

         :::::::::::::::::::::::::::::::::::::::::::::::::::::
         ::                  THERMODYNAMIC                  ::
         :::::::::::::::::::::::::::::::::::::::::::::::::::::
         :: total free energy          -7.911667925338 Eh   ::
         ::.................................................::
         :: total energy               -7.939647401941 Eh   ::
         :: zero point energy           0.028315937552 Eh   ::
         :: G(RRHO) w/o ZPVE           -0.000336460949 Eh   ::
         :: G(RRHO) contrib.            0.027979476603 Eh   ::
         :::::::::::::::::::::::::::::::::::::::::::::::::::::

           -------------------------------------------------
          | TOTAL ENERGY               -7.939647401941 Eh   |
          | TOTAL ENTHALPY             -7.911204788373 Eh   |
          | TOTAL FREE ENERGY          -7.911667925338 Eh   |
          | GRADIENT NORM               0.000069043984 Eh/Î± |
          | HOMO-LUMO GAP               3.334021895729 eV   |
           -------------------------------------------------

 * finished run on 2020/05/12 at 11:44:47.840
