   * xtb version 6.2.2 (9d81278992624c895f80dd42a50cac0aa55982e2) compiled by '@Darwin' on 04/03/2020
          program call               : xtb --input H1C1O1_1_S_1.input H1C1O1_1_S_1.xyz --ohess --molden --namespace H1C1O1_1_S_1 output.out
          number of atoms            :                     3
          number of electrons        :                    11
          charge                     :                     0
          spin                       :                   0.5

   ID    Z sym.   atoms
    1    8 O      1
    2    6 C      2
    3    1 H      3

          :  Hamiltonian                  GFN2-xTB          :
 * total energy  :    -6.5397523 Eh     change        0.2153921E-10 Eh
 * total energy  :    -6.5897689 Eh     change       -0.5001659E-01 Eh
 * total energy  :    -6.5903417 Eh     change       -0.5728036E-03 Eh
 * total energy  :    -6.5949162 Eh     change       -0.4574486E-02 Eh
 * total energy  :    -6.5951375 Eh     change       -0.2212962E-03 Eh
 * total energy  :    -6.5951538 Eh     change       -0.1629502E-04 Eh
 * total energy  :    -6.5951551 Eh     change       -0.1332231E-05 Eh
   *** GEOMETRY OPTIMIZATION CONVERGED AFTER 7 ITERATIONS ***

 final structure:
================
3
 xtb: 6.2.2 (9d81278992624c895f80dd42a50cac0aa55982e2)
O         1.04446525308951   -0.10561259909860    0.00000000000000
C        -0.05056657514889    0.33405634124971    0.00000000000000
H        -0.99389867794062   -0.22844374215112    0.00000000000000

          :  Hamiltonian                  GFN2-xTB          :
         :: gradient norm              0.000169072394 Eh/a0 ::
         :: HOMO-LUMO gap              1.375037058615 eV    ::
         :: SCC energy                -6.656869153766 Eh    ::
         :: -> dispersion             -0.000443118041 Eh    ::
         :: repulsion energy           0.061714032337 Eh    ::

    * Orbital Energies and Occupations

         #    Occupation            Energy/Eh            Energy/eV
      -------------------------------------------------------------
         1        2.0000           -0.7516159             -20.4525
         2        2.0000           -0.6304552             -17.1556
         3        2.0000           -0.5799671             -15.7817
         4        2.0000           -0.5697598             -15.5040
         5        2.0000           -0.5215778             -14.1929
         6        1.0000           -0.3328432              -9.0571 (HOMO)
         7                         -0.2823115              -7.6821 (LUMO)
         8                          0.1538864               4.1875
         9                          0.6322198              17.2036
      -------------------------------------------------------------
                  HL-Gap            0.0505317 Eh            1.3750 eV

     #   Z        covCN         q      C6AA      Î±(0)
     1   8 O      0.856    -0.185    17.818     5.659
     2   6 C      1.779     0.105    28.612     8.647
     3   1 H      0.923     0.079     1.985     2.203

Wiberg/Mayer (AO) data.
largest (>0.10) Wiberg bond orders for each atom
          total WBO             WBO to atom ...

molecular dipole:
                 x           y           z       tot (Debye)
 q only:       -0.524       0.069       0.000
   full:       -0.644      -0.126       0.000       1.669

 projected vibrational frequencies (cm-1)
eigval :       -0.00    -0.00     0.00     0.00     0.00     0.00
eigval :     1045.45  1947.63  2753.86

   temp. (K)  partition function   enthalpy   heat capacity  entropy
                                   cal/mol     cal/K/mol   cal/K/mol   J/K/mol
  10.00  VIB   1.00                    0.000      0.000     -0.000
         ROT   4.34                   29.809      2.981      5.896
         INT   4.34                   29.809      2.981      5.896
         TR   0.929E+24               49.681      4.968     19.155
         TOT                          79.4904     7.9490    25.0511   104.8136

       T/K    H(0)-H(T)+PV         H(T)/Eh          T*S/Eh         G(T)/Eh
   ------------------------------------------------------------------------
    298.15    0.380848E-02    0.169010E-01    0.247589E-01   -0.785792E-02
    120.00    0.152013E-02    0.146126E-01    0.856677E-02    0.604586E-02
    100.00    0.126676E-02    0.143593E-01    0.690808E-02    0.745119E-02
     80.00    0.101341E-02    0.141059E-01    0.530039E-02    0.880552E-02
     60.00    0.760056E-03    0.138526E-01    0.375671E-02    0.100959E-01
     40.00    0.506704E-03    0.135992E-01    0.229908E-02    0.113001E-01
     20.00    0.253352E-03    0.133459E-01    0.973985E-03    0.123719E-01
     10.00    0.126676E-03    0.132192E-01    0.399214E-03    0.128200E-01 (used)
   ------------------------------------------------------------------------

         :::::::::::::::::::::::::::::::::::::::::::::::::::::
         ::                  THERMODYNAMIC                  ::
         :::::::::::::::::::::::::::::::::::::::::::::::::::::
         :: total free energy          -6.582335151927 Eh   ::
         ::.................................................::
         :: total energy               -6.595155121570 Eh   ::
         :: zero point energy           0.013092507713 Eh   ::
         :: G(RRHO) w/o ZPVE           -0.000272538070 Eh   ::
         :: G(RRHO) contrib.            0.012819969643 Eh   ::
         :::::::::::::::::::::::::::::::::::::::::::::::::::::

           -------------------------------------------------
          | TOTAL ENERGY               -6.595155121570 Eh   |
          | TOTAL ENTHALPY             -6.581935937842 Eh   |
          | TOTAL FREE ENERGY          -6.582335151927 Eh   |
          | GRADIENT NORM               0.000169115799 Eh/Î± |
          | HOMO-LUMO GAP               1.375037196729 eV   |
           -------------------------------------------------

 * finished run on 2020/05/12 at 11:44:24.731
