   * xtb version 6.2.2 (9d81278992624c895f80dd42a50cac0aa55982e2) compiled by '@Darwin' on 04/03/2020
          program call               : xtb --input C5_6_S_0.input C5_6_S_0.xyz --ohess --molden --namespace C5_6_S_0 output.out
          number of atoms            :                     5
          number of electrons        :                    20
          charge                     :                     0
          spin                       :                   0.0

   ID    Z sym.   atoms
    1    6 C      1-5

          :  Hamiltonian                  GFN2-xTB          :
 * total energy  :   -10.0746349 Eh     change       -0.9675887E-09 Eh
 * total energy  :   -10.1802508 Eh     change       -0.1056159E+00 Eh
 * total energy  :   -10.2034108 Eh     change       -0.2315999E-01 Eh
 * total energy  :   -10.2466238 Eh     change       -0.4321303E-01 Eh
 * total energy  :   -10.2595777 Eh     change       -0.1295389E-01 Eh
 * total energy  :   -10.2719958 Eh     change       -0.1241806E-01 Eh
 * total energy  :   -10.2810537 Eh     change       -0.9057934E-02 Eh
 * total energy  :   -10.2885333 Eh     change       -0.7479570E-02 Eh
 * total energy  :   -10.2987704 Eh     change       -0.1023710E-01 Eh
 * total energy  :   -10.3051140 Eh     change       -0.6343574E-02 Eh
 * total energy  :   -10.3284577 Eh     change       -0.1977069E-03 Eh
 * total energy  :   -10.3285353 Eh     change       -0.7764974E-04 Eh
 * total energy  :   -10.3286037 Eh     change       -0.6836777E-04 Eh
 * total energy  :   -10.3286628 Eh     change       -0.5912132E-04 Eh
 * total energy  :   -10.3287152 Eh     change       -0.5242220E-04 Eh
 * total energy  :   -10.3287280 Eh     change       -0.1278387E-04 Eh
 * total energy  :   -10.3287306 Eh     change       -0.2616059E-05 Eh
 * total energy  :   -10.3287322 Eh     change       -0.1563512E-05 Eh
 * total energy  :   -10.3287339 Eh     change       -0.1686941E-05 Eh
   *** GEOMETRY OPTIMIZATION CONVERGED AFTER 34 ITERATIONS ***

 final structure:
================
5
 xtb: 6.2.2 (9d81278992624c895f80dd42a50cac0aa55982e2)
C        -2.47627186009086   -0.56016835156041    0.33826129291458
C         0.00064479348985   -0.00395353370247   -0.00163473644259
C         1.24287361028115    0.28261991479367   -0.16798599753464
C        -1.24250589775664   -0.28500968687713    0.16691702357351
C         2.47525935407651    0.56651165734639   -0.33555858251086

          :  Hamiltonian                  GFN2-xTB          :
         :: gradient norm              0.000645119692 Eh/a0 ::
         :: HOMO-LUMO gap              1.578570800855 eV    ::
         :: SCC energy               -10.598739953916 Eh    ::
         :: -> dispersion             -0.002738248374 Eh    ::
         :: repulsion energy           0.270007409162 Eh    ::

    * Orbital Energies and Occupations

         #    Occupation            Energy/Eh            Energy/eV
      -------------------------------------------------------------
         1        2.0000           -0.6928742             -18.8541
         2        2.0000           -0.6801815             -18.5087
         3        2.0000           -0.6590120             -17.9326
         4        2.0000           -0.6136655             -16.6987
         5        2.0000           -0.5388608             -14.6631
         6        2.0000           -0.5388604             -14.6631
         7        2.0000           -0.4708854             -12.8134
         8        2.0000           -0.4708843             -12.8134
         9        2.0000           -0.4636965             -12.6178
        10        2.0000           -0.4471507             -12.1676 (HOMO)
        11                         -0.3891394             -10.5890 (LUMO)
        12                         -0.3891391             -10.5890
        13                         -0.2442631              -6.6467
        14                         -0.2442621              -6.6467
        15                         -0.1168191              -3.1788
        16                         -0.1168120              -3.1786
        17                          0.0893076               2.4302
        18                          0.4580923              12.4653
        19                          0.9474830              25.7823
        20                          1.4162599              38.5384
      -------------------------------------------------------------
                  HL-Gap            0.0580113 Eh            1.5786 eV

     #   Z        covCN         q      C6AA      Î±(0)
     1   6 C      0.982    -0.103    39.219    10.519
     2   6 C      1.964     0.112    28.309     8.592
     3   6 C      1.963     0.048    29.858     8.824
     4   6 C      1.963     0.048    29.858     8.824
     5   6 C      0.982    -0.103    39.219    10.519

Wiberg/Mayer (AO) data.
largest (>0.10) Wiberg bond orders for each atom
          total WBO             WBO to atom ...

molecular dipole:
                 x           y           z       tot (Debye)
 q only:        0.000      -0.002      -0.001
   full:        0.001      -0.006      -0.003       0.017

 projected vibrational frequencies (cm-1)
eigval :       -0.00    -0.00    -0.00    -0.00     0.00     0.00
eigval :      102.63   202.63   212.50   486.97   491.91   821.86
eigval :     1551.18  1993.87  2155.59

   temp. (K)  partition function   enthalpy   heat capacity  entropy
                                   cal/mol     cal/K/mol   cal/K/mol   J/K/mol
  10.00  VIB   1.00                    0.000      0.000     -0.038
         ROT   2.33                   29.809      2.981      4.660
         INT   2.33                   29.809      2.981      4.622
         TR   0.277E+25               49.681      4.968     21.322
         TOT                          79.4905     7.9492    25.9441   108.5502

       T/K    H(0)-H(T)+PV         H(T)/Eh          T*S/Eh         G(T)/Eh
   ------------------------------------------------------------------------
    298.15    0.614581E-02    0.244148E-01    0.294763E-01   -0.506150E-02
    120.00    0.189734E-02    0.201663E-01    0.932463E-02    0.108417E-01
    100.00    0.150978E-02    0.197787E-01    0.741876E-02    0.123600E-01
     80.00    0.114823E-02    0.194172E-01    0.561369E-02    0.138035E-01
     60.00    0.816915E-03    0.190859E-01    0.392554E-02    0.151603E-01
     40.00    0.519759E-03    0.187887E-01    0.237689E-02    0.164118E-01
     20.00    0.253644E-03    0.185226E-01    0.100409E-02    0.175185E-01
     10.00    0.126676E-03    0.183956E-01    0.413446E-03    0.179822E-01 (used)
   ------------------------------------------------------------------------

         :::::::::::::::::::::::::::::::::::::::::::::::::::::
         ::                  THERMODYNAMIC                  ::
         :::::::::::::::::::::::::::::::::::::::::::::::::::::
         :: total free energy         -10.310751718728 Eh   ::
         ::.................................................::
         :: total energy              -10.328733898268 Eh   ::
         :: zero point energy           0.018268949189 Eh   ::
         :: G(RRHO) w/o ZPVE           -0.000286769650 Eh   ::
         :: G(RRHO) contrib.            0.017982179539 Eh   ::
         :::::::::::::::::::::::::::::::::::::::::::::::::::::

           -------------------------------------------------
          | TOTAL ENERGY              -10.328733898268 Eh   |
          | TOTAL ENTHALPY            -10.310338272882 Eh   |
          | TOTAL FREE ENERGY         -10.310751718728 Eh   |
          | GRADIENT NORM               0.000644939256 Eh/Î± |
          | HOMO-LUMO GAP               1.578567967854 eV   |
           -------------------------------------------------

 * finished run on 2020/05/12 at 11:44:33.912
