   * xtb version 6.2.2 (9d81278992624c895f80dd42a50cac0aa55982e2) compiled by '@Darwin' on 04/03/2020
          program call               : xtb --input C3N1_6_S_1.input C3N1_6_S_1.xyz --ohess --molden --namespace C3N1_6_S_1 output.out
          number of atoms            :                     4
          number of electrons        :                    17
          charge                     :                     0
          spin                       :                   0.5

   ID    Z sym.   atoms
    1    7 N      1
    2    6 C      2-4

          :  Hamiltonian                  GFN2-xTB          :
 * total energy  :    -8.8662747 Eh     change       -0.8098766E-10 Eh
 * total energy  :    -8.9520495 Eh     change       -0.8577478E-01 Eh
 * total energy  :    -8.9067124 Eh     change        0.4533710E-01 Eh
 * total energy  :    -9.0332016 Eh     change       -0.1264893E+00 Eh
 * total energy  :    -9.0384496 Eh     change       -0.5247914E-02 Eh
 * total energy  :    -9.0406222 Eh     change       -0.2172630E-02 Eh
 * total energy  :    -9.0405319 Eh     change        0.9032567E-04 Eh
 * total energy  :    -9.0419014 Eh     change       -0.1369499E-02 Eh
 * total energy  :    -9.0421662 Eh     change       -0.2648754E-03 Eh
 * total energy  :    -9.0423478 Eh     change       -0.1815928E-03 Eh
 * total energy  :    -9.0423497 Eh     change       -0.1832888E-05 Eh
   *** GEOMETRY OPTIMIZATION CONVERGED AFTER 11 ITERATIONS ***

 final structure:
================
4
 xtb: 6.2.2 (9d81278992624c895f80dd42a50cac0aa55982e2)
N         1.57135909911743   -0.03511817304769    0.04147755662812
C         0.41883971856807   -0.00937626334122    0.01160713418560
C        -0.98142724432894    0.65320496150291   -0.01040390574782
C        -1.00877157335656   -0.60871052511399   -0.04268178506591

          :  Hamiltonian                  GFN2-xTB          :
         :: gradient norm              0.000618722247 Eh/a0 ::
         :: HOMO-LUMO gap              1.804677396567 eV    ::
         :: SCC energy                -9.237737054048 Eh    ::
         :: -> dispersion             -0.001731915618 Eh    ::
         :: repulsion energy           0.195387383254 Eh    ::

    * Orbital Energies and Occupations

         #    Occupation            Energy/Eh            Energy/eV
      -------------------------------------------------------------
         1        2.0000           -0.7243301             -19.7100
         2        2.0000           -0.6947518             -18.9052
         3        2.0000           -0.5862082             -15.9515
         4        2.0000           -0.5805719             -15.7982
         5        2.0000           -0.5608724             -15.2621
         6        2.0000           -0.5047634             -13.7353
         7        2.0000           -0.4801922             -13.0667
         8        2.0000           -0.4783701             -13.0171
         9        1.0000           -0.4164238             -11.3315 (HOMO)
        10                         -0.3501030              -9.5268 (LUMO)
        11                         -0.2647414              -7.2040
        12                         -0.2384554              -6.4887
        13                         -0.0521411              -1.4188
        14                         -0.0282623              -0.7691
        15                          0.6689809              18.2039
        16                          0.9722398              26.4560
      -------------------------------------------------------------
                  HL-Gap            0.0663207 Eh            1.8047 eV

     #   Z        covCN         q      C6AA      Î±(0)
     1   7 N      0.911    -0.179    24.871     7.213
     2   6 C      2.856     0.207    23.622     7.966
     3   6 C      1.953    -0.014    31.452     9.057
     4   6 C      1.953    -0.014    31.452     9.057

Wiberg/Mayer (AO) data.
largest (>0.10) Wiberg bond orders for each atom
          total WBO             WBO to atom ...

molecular dipole:
                 x           y           z       tot (Debye)
 q only:       -0.313       0.007      -0.008
   full:       -0.658       0.015      -0.017       1.673

 projected vibrational frequencies (cm-1)
eigval :       -0.00    -0.00    -0.00     0.00     0.00     0.00
eigval :     -359.64   378.20   431.07   773.89  1874.66  2252.34

   temp. (K)  partition function   enthalpy   heat capacity  entropy
                                   cal/mol     cal/K/mol   cal/K/mol   J/K/mol
  10.00  VIB   1.00                    0.000      0.000     -0.001
         ROT   47.2                   29.809      2.981     10.639
         INT   47.2                   29.809      2.981     10.638
         TR   0.210E+25               49.681      4.968     20.778
         TOT                          79.4904     7.9490    31.4164   131.4462

       T/K    H(0)-H(T)+PV         H(T)/Eh          T*S/Eh         G(T)/Eh
   ------------------------------------------------------------------------
    298.15    0.447586E-02    0.174846E-01    0.287600E-01   -0.112754E-01
    120.00    0.155038E-02    0.145591E-01    0.982081E-02    0.473829E-02
    100.00    0.127830E-02    0.142870E-01    0.793619E-02    0.635082E-02
     80.00    0.101617E-02    0.140249E-01    0.611519E-02    0.790971E-02
     60.00    0.760318E-03    0.137690E-01    0.436571E-02    0.940333E-02
     40.00    0.506707E-03    0.135154E-01    0.270488E-02    0.108105E-01
     20.00    0.253352E-03    0.132621E-01    0.117687E-02    0.120852E-01
     10.00    0.126676E-03    0.131354E-01    0.500652E-03    0.126347E-01 (used)
   ------------------------------------------------------------------------

         :::::::::::::::::::::::::::::::::::::::::::::::::::::
         ::                  THERMODYNAMIC                  ::
         :::::::::::::::::::::::::::::::::::::::::::::::::::::
         :: total free energy          -9.029714921870 Eh   ::
         ::.................................................::
         :: total energy               -9.042349664780 Eh   ::
         :: zero point energy           0.013008719146 Eh   ::
         :: G(RRHO) w/o ZPVE           -0.000373976236 Eh   ::
         :: G(RRHO) contrib.            0.012634742910 Eh   ::
         :::::::::::::::::::::::::::::::::::::::::::::::::::::

           -------------------------------------------------
          | TOTAL ENERGY               -9.042349664780 Eh   |
          | TOTAL ENTHALPY             -9.029214269618 Eh   |
          | TOTAL FREE ENERGY          -9.029714921870 Eh   |
          | GRADIENT NORM               0.000618895045 Eh/Î± |
          | HOMO-LUMO GAP               1.804679142412 eV   |
           -------------------------------------------------

 * finished run on 2020/05/12 at 11:45:05.731
