   * xtb version 6.2.2 (9d81278992624c895f80dd42a50cac0aa55982e2) compiled by '@Darwin' on 04/03/2020
          program call               : xtb --input H1C3N1_6_S_2.input H1C3N1_6_S_2.xyz --ohess --molden --namespace H1C3N1_6_S_2 output.out
          number of atoms            :                     5
          number of electrons        :                    18
          charge                     :                     0
          spin                       :                   1.0

   ID    Z sym.   atoms
    1    6 C      1-3
    2    7 N      4
    3    1 H      5

          :  Hamiltonian                  GFN2-xTB          :
 * total energy  :    -9.3840065 Eh     change       -0.3277734E-10 Eh
 * total energy  :    -9.4800349 Eh     change       -0.9602842E-01 Eh
 * total energy  :    -9.4851042 Eh     change       -0.5069274E-02 Eh
 * total energy  :    -9.5227182 Eh     change       -0.3761393E-01 Eh
 * total energy  :    -9.5265224 Eh     change       -0.3804263E-02 Eh
 * total energy  :    -9.5376482 Eh     change       -0.1112583E-01 Eh
 * total energy  :    -9.5352084 Eh     change        0.2439873E-02 Eh
 * total energy  :    -9.5451157 Eh     change       -0.9907374E-02 Eh
 * total energy  :    -9.5463815 Eh     change       -0.1265727E-02 Eh
 * total energy  :    -9.5450850 Eh     change        0.1296454E-02 Eh
 * total energy  :    -9.5487868 Eh     change       -0.3701762E-02 Eh
 * total energy  :    -9.5491647 Eh     change       -0.3779125E-03 Eh
 * total energy  :    -9.5494190 Eh     change       -0.2542900E-03 Eh
 * total energy  :    -9.5494813 Eh     change       -0.6230783E-04 Eh
 * total energy  :    -9.5494877 Eh     change       -0.6449617E-05 Eh
 * total energy  :    -9.5494880 Eh     change       -0.3060175E-06 Eh
   *** GEOMETRY OPTIMIZATION CONVERGED AFTER 16 ITERATIONS ***

 final structure:
================
5
 xtb: 6.2.2 (9d81278992624c895f80dd42a50cac0aa55982e2)
C        -1.16418308023422    1.12128047338576    0.36988186414017
C        -0.56269404483662    0.02028372431188    0.04242629425124
C         0.84824625069406   -0.06402091393460   -0.07529271870103
N         1.98460575650844   -0.16436473330343   -0.17831186115019
H        -1.10597388213167   -0.91317955045962   -0.15870357854019

          :  Hamiltonian                  GFN2-xTB          :
         :: gradient norm              0.000494979551 Eh/a0 ::
         :: HOMO-LUMO gap              1.558322125959 eV    ::
         :: SCC energy                -9.755708996241 Eh    ::
         :: -> dispersion             -0.002133537447 Eh    ::
         :: repulsion energy           0.206220881035 Eh    ::

    * Orbital Energies and Occupations

         #    Occupation            Energy/Eh            Energy/eV
      -------------------------------------------------------------
         1        2.0000           -0.6767621             -18.4156
         2        2.0000           -0.6658163             -18.1178
         3        2.0000           -0.6012325             -16.3604
         4        2.0000           -0.5624842             -15.3060
         5        2.0000           -0.5276819             -14.3590
         6        2.0000           -0.5046904             -13.7333
         7        2.0000           -0.4650255             -12.6540
         8        2.0000           -0.4556171             -12.3980
         9        1.0000           -0.4278906             -11.6435
        10        1.0000           -0.3448067              -9.3827 (HOMO)
        11                         -0.2875396              -7.8244 (LUMO)
        12                         -0.2324494              -6.3253
        13                         -0.1599511              -4.3525
        14                          0.1092647               2.9732
        15                          0.2345725               6.3830
        16                          0.6194791              16.8569
        17                          1.1322636              30.8105
      -------------------------------------------------------------
                  HL-Gap            0.0572670 Eh            1.5583 eV

     #   Z        covCN         q      C6AA      Î±(0)
     1   6 C      1.003    -0.074    38.372    10.416
     2   6 C      2.884     0.008    27.844     8.651
     3   6 C      1.913     0.135    27.794     8.514
     4   7 N      0.911    -0.175    24.794     7.202
     5   1 H      0.923     0.106     1.735     2.060

Wiberg/Mayer (AO) data.
largest (>0.10) Wiberg bond orders for each atom
          total WBO             WBO to atom ...

molecular dipole:
                 x           y           z       tot (Debye)
 q only:       -0.507      -0.300      -0.043
   full:       -0.912      -0.280      -0.010       2.425

 projected vibrational frequencies (cm-1)
eigval :       -0.00    -0.00     0.00     0.00     0.00     0.00
eigval :      195.26   338.34   555.96   575.25   952.32  1143.17
eigval :     1647.12  2343.79  2780.73

   temp. (K)  partition function   enthalpy   heat capacity  entropy
                                   cal/mol     cal/K/mol   cal/K/mol   J/K/mol
  10.00  VIB   1.00                    0.000      0.000     -0.006
         ROT   120.                   29.809      2.981     12.492
         INT   120.                   29.809      2.981     12.486
         TR   0.217E+25               49.681      4.968     20.838
         TOT                          79.4904     7.9490    33.3238   139.4267

       T/K    H(0)-H(T)+PV         H(T)/Eh          T*S/Eh         G(T)/Eh
   ------------------------------------------------------------------------
    298.15    0.514753E-02    0.291411E-01    0.308385E-01   -0.169739E-02
    120.00    0.164792E-02    0.256415E-01    0.103243E-01    0.153172E-01
    100.00    0.133727E-02    0.253308E-01    0.832068E-02    0.170101E-01
     80.00    0.104450E-02    0.250380E-01    0.639557E-02    0.186425E-01
     60.00    0.768839E-03    0.247624E-01    0.455911E-02    0.202033E-01
     40.00    0.507505E-03    0.245010E-01    0.282776E-02    0.216733E-01
     20.00    0.253353E-03    0.242469E-01    0.123776E-02    0.230091E-01
     10.00    0.126676E-03    0.241202E-01    0.531048E-03    0.235892E-01 (used)
   ------------------------------------------------------------------------

         :::::::::::::::::::::::::::::::::::::::::::::::::::::
         ::                  THERMODYNAMIC                  ::
         :::::::::::::::::::::::::::::::::::::::::::::::::::::
         :: total free energy          -9.525898878916 Eh   ::
         ::.................................................::
         :: total energy               -9.549488043400 Eh   ::
         :: zero point energy           0.023993536856 Eh   ::
         :: G(RRHO) w/o ZPVE           -0.000404372372 Eh   ::
         :: G(RRHO) contrib.            0.023589164484 Eh   ::
         :::::::::::::::::::::::::::::::::::::::::::::::::::::

           -------------------------------------------------
          | TOTAL ENERGY               -9.549488043400 Eh   |
          | TOTAL ENTHALPY             -9.525367830529 Eh   |
          | TOTAL FREE ENERGY          -9.525898878916 Eh   |
          | GRADIENT NORM               0.000494742060 Eh/Î± |
          | HOMO-LUMO GAP               1.558315557228 eV   |
           -------------------------------------------------

 * finished run on 2020/05/12 at 11:44:52.741
