 Gaussian 16, Revision B.01,
 Gaussian 16:  ES64L-G16RevB.01 20-Dec-2017

 ----------------------
 #P CCSD(T)/aug-cc-pvtz
 ----------------------

 -----
 Title
 -----
 Symbolic Z-matrix:
 Charge =  0 Multiplicity = 2

                         Standard orientation:
 ---------------------------------------------------------------------
 Center     Atomic      Atomic             Coordinates (Angstroms)
 Number     Number       Type             X           Y           Z
 ---------------------------------------------------------------------
      1         11           0        0.000000    0.000000    0.000000
 ---------------------------------------------------------------------

 SCF Done:  E(UHF) =  -161.858037973     A.U. after    9 cycles
 E2 =     0.0000000000D+00 EUMP2 =    -0.16185803797269D+03
 CCSD(T)
 CCSD(T)= -0.16185803797D+03

 The electronic state is 2-A1G.
 Alpha  occ. eigenvalues --  -40.48002  -2.80062  -1.51910  -1.51910  -1.51910
 Alpha  occ. eigenvalues --   -0.18220
 Alpha virt. eigenvalues --    0.01104   0.01104   0.01104   0.01909   0.03434
 Alpha virt. eigenvalues --    0.03434   0.03434   0.07118   0.07118   0.07118
 Alpha virt. eigenvalues --    0.07118   0.07118   0.10665   0.10665   0.10665

  Beta  occ. eigenvalues --  -40.47739  -2.79351  -1.51693  -1.51693  -1.51693
  Beta virt. eigenvalues --    0.00525   0.01462   0.01462   0.01462   0.03900
  Beta virt. eigenvalues --    0.04940   0.04940   0.04940   0.07487   0.07487
  Beta virt. eigenvalues --    0.07487   0.07487   0.07487   0.12994   0.12994

 Mulliken charges and spin densities:
               1          2
     1  Na  -0.000000   1.000000
 Sum of Mulliken charges =  -0.00000   1.00000

 Dipole moment (field-independent basis, Debye):
    X=              0.0000    Y=              0.0000    Z=              0.0000  Tot=              0.0000
 Quadrupole moment (field-independent basis, Debye-Ang):
   XX=            -12.1759   YY=            -12.1759   ZZ=            -12.1759
   XY=              0.0000   XZ=              0.0000   YZ=             -0.0000

 8038\MP4DQ=-161.858038\MP4SDQ=-161.858038\CCSD=-161.858038\CCSD(T)=-16
 Normal termination of Gaussian 16 at Mon Oct  5 21:28:00 2020.
