   * xtb version 6.2.2 (9d81278992624c895f80dd42a50cac0aa55982e2) compiled by '@Darwin' on 04/03/2020
          program call               : xtb --input C4N1_33_S_3.input C4N1_33_S_3.xyz --ohess --molden --namespace C4N1_33_S_3 output.out
          number of atoms            :                     5
          number of electrons        :                    21
          charge                     :                     0
          spin                       :                   1.5

   ID    Z sym.   atoms
    1    7 N      1
    2    6 C      2-5

          :  Hamiltonian                  GFN2-xTB          :
 * total energy  :   -10.8850188 Eh     change       -0.4717897E-09 Eh
 * total energy  :   -10.9164166 Eh     change       -0.3139774E-01 Eh
 * total energy  :   -10.9014180 Eh     change        0.1499859E-01 Eh
 * total energy  :   -10.9467077 Eh     change       -0.4528976E-01 Eh
 * total energy  :   -10.9633701 Eh     change       -0.1666231E-01 Eh
 * total energy  :   -10.9636928 Eh     change       -0.3227127E-03 Eh
 * total energy  :   -10.9822607 Eh     change       -0.1856789E-01 Eh
 * total energy  :   -10.9897259 Eh     change       -0.7465287E-02 Eh
 * total energy  :   -10.9959049 Eh     change       -0.6178952E-02 Eh
 * total energy  :   -11.0032609 Eh     change       -0.7356000E-02 Eh
 * total energy  :   -11.0091841 Eh     change       -0.6173774E-03 Eh
 * total energy  :   -11.0099580 Eh     change       -0.7738860E-03 Eh
 * total energy  :   -11.0100784 Eh     change       -0.1204314E-03 Eh
 * total energy  :   -11.0101010 Eh     change       -0.2258626E-04 Eh
 * total energy  :   -11.0101114 Eh     change       -0.1044284E-04 Eh
 * total energy  :   -11.0101310 Eh     change       -0.1954721E-04 Eh
 * total energy  :   -11.0101497 Eh     change       -0.1870805E-04 Eh
 * total energy  :   -11.0101589 Eh     change       -0.9189333E-05 Eh
 * total energy  :   -11.0101599 Eh     change       -0.1016803E-05 Eh
   *** GEOMETRY OPTIMIZATION CONVERGED AFTER 21 ITERATIONS ***

 final structure:
================
5
 xtb: 6.2.2 (9d81278992624c895f80dd42a50cac0aa55982e2)
N        -1.47016773970300   -0.06853812060223    0.15453930417059
C        -0.58902271723858    0.89419003770749    0.02193582257401
C         0.65206225089643    0.03170646868944   -0.06721593470040
C        -0.49396438012262   -0.94491791724373    0.09271638541671
C         1.90109258616776    0.08755953144904   -0.20197557746092

          :  Hamiltonian                  GFN2-xTB          :
         :: gradient norm              0.000914858690 Eh/a0 ::
         :: HOMO-LUMO gap              1.292962578487 eV    ::
         :: SCC energy               -11.181875915662 Eh    ::
         :: -> dispersion             -0.002856676926 Eh    ::
         :: repulsion energy           0.171716006482 Eh    ::

    * Orbital Energies and Occupations

         #    Occupation            Energy/Eh            Energy/eV
      -------------------------------------------------------------
         1        2.0000           -0.7436201             -20.2349
         2        2.0000           -0.6853741             -18.6500
         3        2.0000           -0.6352061             -17.2848
         4        2.0000           -0.6218078             -16.9203
         5        2.0000           -0.5721324             -15.5685
         6        2.0000           -0.5641137             -15.3503
         7        2.0000           -0.4922178             -13.3939
         8        2.0000           -0.4837125             -13.1625
         9        2.0000           -0.4698872             -12.7863
        10        1.0000           -0.4364385             -11.8761
        11        1.0000           -0.4142948             -11.2735
        12        1.0000           -0.3680172             -10.0143 (HOMO)
        13                         -0.3205020              -8.7213 (LUMO)
        14                         -0.3184099              -8.6644
        15                         -0.1772046              -4.8220
        16                          0.0504031               1.3715
        17                          0.0781596               2.1268
        18                          0.2496755               6.7940
        19                          0.3490840               9.4991
        20                          0.8593701              23.3847
      -------------------------------------------------------------
                  HL-Gap            0.0475152 Eh            1.2930 eV

     #   Z        covCN         q      C6AA      Î±(0)
     1   7 N      1.958    -0.025    22.417     7.021
     2   6 C      2.669    -0.008    28.206     8.690
     3   6 C      3.070     0.101    25.689     8.311
     4   6 C      2.669    -0.009    28.224     8.693
     5   6 C      0.982    -0.059    37.749    10.320

Wiberg/Mayer (AO) data.
largest (>0.10) Wiberg bond orders for each atom
          total WBO             WBO to atom ...

molecular dipole:
                 x           y           z       tot (Debye)
 q only:        0.000       0.002       0.000
   full:       -0.043       0.001       0.005       0.111

 projected vibrational frequencies (cm-1)
eigval :       -0.00    -0.00    -0.00    -0.00     0.00     0.00
eigval :      221.62   284.77   304.95   358.96   623.00   899.77
eigval :      951.25  1496.05  1811.08

   temp. (K)  partition function   enthalpy   heat capacity  entropy
                                   cal/mol     cal/K/mol   cal/K/mol   J/K/mol
  10.00  VIB   1.00                    0.000      0.000     -0.007
         ROT   102.                   29.809      2.981     12.177
         INT   102.                   29.809      2.981     12.170
         TR   0.290E+25               49.681      4.968     21.419
         TOT                          79.4904     7.9490    33.5892   140.5374

       T/K    H(0)-H(T)+PV         H(T)/Eh          T*S/Eh         G(T)/Eh
   ------------------------------------------------------------------------
    298.15    0.576207E-02    0.215987E-01    0.319400E-01   -0.103414E-01
    120.00    0.170143E-02    0.175380E-01    0.104384E-01    0.709963E-02
    100.00    0.135938E-02    0.171960E-01    0.838732E-02    0.880865E-02
     80.00    0.104872E-02    0.168853E-01    0.643310E-02    0.104522E-01
     60.00    0.767683E-03    0.166043E-01    0.458281E-02    0.120215E-01
     40.00    0.507127E-03    0.163437E-01    0.284423E-02    0.134995E-01
     20.00    0.253352E-03    0.160899E-01    0.124622E-02    0.148437E-01
     10.00    0.126676E-03    0.159633E-01    0.535279E-03    0.154280E-01 (used)
   ------------------------------------------------------------------------

         :::::::::::::::::::::::::::::::::::::::::::::::::::::
         ::                  THERMODYNAMIC                  ::
         :::::::::::::::::::::::::::::::::::::::::::::::::::::
         :: total free energy         -10.994731909616 Eh   ::
         ::.................................................::
         :: total energy              -11.010159896036 Eh   ::
         :: zero point energy           0.015836589080 Eh   ::
         :: G(RRHO) w/o ZPVE           -0.000408602661 Eh   ::
         :: G(RRHO) contrib.            0.015427986420 Eh   ::
         :::::::::::::::::::::::::::::::::::::::::::::::::::::

           -------------------------------------------------
          | TOTAL ENERGY              -11.010159896036 Eh   |
          | TOTAL ENTHALPY            -10.994196630940 Eh   |
          | TOTAL FREE ENERGY         -10.994731909616 Eh   |
          | GRADIENT NORM               0.000914516492 Eh/Î± |
          | HOMO-LUMO GAP               1.292953920779 eV   |
           -------------------------------------------------

 * finished run on 2020/05/12 at 11:44:13.151
