   * xtb version 6.2.2 (9d81278992624c895f80dd42a50cac0aa55982e2) compiled by '@Darwin' on 04/03/2020
          program call               : xtb --input C4N1_5_S_1.input C4N1_5_S_1.xyz --ohess --molden --namespace C4N1_5_S_1 output.out
          number of atoms            :                     5
          number of electrons        :                    21
          charge                     :                     0
          spin                       :                   0.5

   ID    Z sym.   atoms
    1    6 C      1-4
    2    7 N      5

          :  Hamiltonian                  GFN2-xTB          :
 * total energy  :   -10.8640060 Eh     change       -0.9800175E-08 Eh
 * total energy  :   -11.0003560 Eh     change       -0.1363501E+00 Eh
 * total energy  :   -10.9622302 Eh     change        0.3812581E-01 Eh
 * total energy  :   -11.0579932 Eh     change       -0.9576303E-01 Eh
 * total energy  :   -11.0761361 Eh     change       -0.1814286E-01 Eh
 * total energy  :   -11.1048416 Eh     change       -0.2870549E-01 Eh
 * total energy  :   -11.1405767 Eh     change       -0.3573515E-01 Eh
 * total energy  :   -11.1452772 Eh     change       -0.4700426E-02 Eh
 * total energy  :   -11.1452483 Eh     change        0.2889477E-04 Eh
 * total energy  :   -11.1432293 Eh     change        0.2018925E-02 Eh
 * total energy  :   -11.1511713 Eh     change       -0.1629045E-03 Eh
 * total energy  :   -11.1512915 Eh     change       -0.1201958E-03 Eh
 * total energy  :   -11.1513549 Eh     change       -0.6336486E-04 Eh
 * total energy  :   -11.1513910 Eh     change       -0.3615418E-04 Eh
 * total energy  :   -11.1513968 Eh     change       -0.5827064E-05 Eh
 * total energy  :   -11.1514007 Eh     change       -0.3888915E-05 Eh
 * total energy  :   -11.1513568 Eh     change        0.4391703E-04 Eh
 * total energy  :   -11.1514093 Eh     change       -0.5250293E-04 Eh
 * total energy  :   -11.1514105 Eh     change       -0.1163739E-05 Eh
   *** GEOMETRY OPTIMIZATION CONVERGED AFTER 25 ITERATIONS ***

 final structure:
================
5
 xtb: 6.2.2 (9d81278992624c895f80dd42a50cac0aa55982e2)
C        -1.46760735750433    0.87411315269199   -0.03145040718575
C        -0.28905488378787   -0.02305190332958   -0.00306262721474
C         1.07483747693626   -0.12782765783981    0.01346561114879
C        -1.54141629705640   -0.51861237996920   -0.00550951825488
N         2.22324106141234   -0.20462221155339    0.02655794150657

          :  Hamiltonian                  GFN2-xTB          :
         :: gradient norm              0.000789999511 Eh/a0 ::
         :: HOMO-LUMO gap              1.741005729849 eV    ::
         :: SCC energy               -11.383309134577 Eh    ::
         :: -> dispersion             -0.002690488193 Eh    ::
         :: repulsion energy           0.231898736196 Eh    ::

    * Orbital Energies and Occupations

         #    Occupation            Energy/Eh            Energy/eV
      -------------------------------------------------------------
         1        2.0000           -0.7291454             -19.8411
         2        2.0000           -0.6931962             -18.8628
         3        2.0000           -0.6564869             -17.8639
         4        2.0000           -0.5968699             -16.2417
         5        2.0000           -0.5622933             -15.3008
         6        2.0000           -0.5380305             -14.6406
         7        2.0000           -0.5258773             -14.3099
         8        2.0000           -0.5132900             -13.9673
         9        2.0000           -0.4708191             -12.8116
        10        2.0000           -0.4424806             -12.0405
        11        1.0000           -0.4204732             -11.4417 (HOMO)
        12                         -0.3564925              -9.7007 (LUMO)
        13                         -0.2964278              -8.0662
        14                         -0.2581774              -7.0254
        15                         -0.1784565              -4.8560
        16                         -0.0271801              -0.7396
        17                          0.0603938               1.6434
        18                          0.3150048               8.5717
        19                          0.5757681              15.6674
        20                          1.1962838              32.5525
      -------------------------------------------------------------
                  HL-Gap            0.0639807 Eh            1.7410 eV

     #   Z        covCN         q      C6AA      Î±(0)
     1   6 C      1.958    -0.089    33.508     9.348
     2   6 C      2.940     0.113    25.505     8.283
     3   6 C      1.891     0.128    27.973     8.542
     4   6 C      1.961     0.008    30.855     8.970
     5   7 N      0.911    -0.161    24.485     7.156

Wiberg/Mayer (AO) data.
largest (>0.10) Wiberg bond orders for each atom
          total WBO             WBO to atom ...

molecular dipole:
                 x           y           z       tot (Debye)
 q only:       -0.257      -0.128      -0.000
   full:       -0.309      -0.403       0.004       1.291

 projected vibrational frequencies (cm-1)
eigval :       -0.00    -0.00     0.00     0.00     0.00     0.00
eigval :      190.06   201.78   499.66   546.29   705.79   941.09
eigval :     1203.74  1792.07  2301.05

   temp. (K)  partition function   enthalpy   heat capacity  entropy
                                   cal/mol     cal/K/mol   cal/K/mol   J/K/mol
  10.00  VIB   1.00                    0.000      0.000     -0.011
         ROT   234.                   29.809      2.981     13.818
         INT   234.                   29.809      2.981     13.808
         TR   0.290E+25               49.681      4.968     21.419
         TOT                          79.4904     7.9490    35.2270   147.3897

       T/K    H(0)-H(T)+PV         H(T)/Eh          T*S/Eh         G(T)/Eh
   ------------------------------------------------------------------------
    298.15    0.550237E-02    0.245969E-01    0.324202E-01   -0.782330E-02
    120.00    0.171874E-02    0.208132E-01    0.107924E-01    0.100209E-01
    100.00    0.138306E-02    0.204776E-01    0.868804E-02    0.117895E-01
     80.00    0.106825E-02    0.201628E-01    0.666985E-02    0.134929E-01
     60.00    0.776593E-03    0.198711E-01    0.475114E-02    0.151200E-01
     40.00    0.508284E-03    0.196028E-01    0.295030E-02    0.166525E-01
     20.00    0.253353E-03    0.193479E-01    0.129851E-02    0.180494E-01
     10.00    0.126676E-03    0.192212E-01    0.561378E-03    0.186598E-01 (used)
   ------------------------------------------------------------------------

         :::::::::::::::::::::::::::::::::::::::::::::::::::::
         ::                  THERMODYNAMIC                  ::
         :::::::::::::::::::::::::::::::::::::::::::::::::::::
         :: total free energy         -11.132750661426 Eh   ::
         ::.................................................::
         :: total energy              -11.151410472269 Eh   ::
         :: zero point energy           0.019094512647 Eh   ::
         :: G(RRHO) w/o ZPVE           -0.000434701804 Eh   ::
         :: G(RRHO) contrib.            0.018659810843 Eh   ::
         :::::::::::::::::::::::::::::::::::::::::::::::::::::

           -------------------------------------------------
          | TOTAL ENERGY              -11.151410472269 Eh   |
          | TOTAL ENTHALPY            -11.132189283607 Eh   |
          | TOTAL FREE ENERGY         -11.132750661426 Eh   |
          | GRADIENT NORM               0.000789924412 Eh/Î± |
          | HOMO-LUMO GAP               1.741002299578 eV   |
           -------------------------------------------------

 * finished run on 2020/05/12 at 11:43:59.366
