   * xtb version 6.2.2 (9d81278992624c895f80dd42a50cac0aa55982e2) compiled by '@Darwin' on 04/03/2020
          program call               : xtb --input H2C2N1_0_S_3.input H2C2N1_0_S_3.xyz --ohess --molden --namespace H2C2N1_0_S_3 output.out
          number of atoms            :                     5
          number of electrons        :                    15
          charge                     :                     0
          spin                       :                   1.5

   ID    Z sym.   atoms
    1    6 C      1, 3
    2    7 N      2
    3    1 H      4, 5

          :  Hamiltonian                  GFN2-xTB          :
 * total energy  :    -7.8161439 Eh     change       -0.8220411E-09 Eh
 * total energy  :    -7.8228367 Eh     change       -0.6692848E-02 Eh
 * total energy  :    -7.8249650 Eh     change       -0.2128278E-02 Eh
 * total energy  :    -7.8261821 Eh     change       -0.1217046E-02 Eh
 * total energy  :    -7.8265177 Eh     change       -0.3356158E-03 Eh
 * total energy  :    -7.8265247 Eh     change       -0.7061972E-05 Eh
 * total energy  :    -7.8265252 Eh     change       -0.4496155E-06 Eh
   *** GEOMETRY OPTIMIZATION CONVERGED AFTER 7 ITERATIONS ***

 final structure:
================
5
 xtb: 6.2.2 (9d81278992624c895f80dd42a50cac0aa55982e2)
C        -0.05706177822915    0.00512065658156    0.00198276642980
N        -1.15409752248386    0.76373912656335    0.01438341981877
C         1.29399021664918    0.57321120733069   -0.07181984404187
H        -0.00756167229339   -0.63654925021348    0.91290309465779
H        -0.07526824364278   -0.70552074026212   -0.85744943686449

          :  Hamiltonian                  GFN2-xTB          :
         :: gradient norm              0.000194433540 Eh/a0 ::
         :: HOMO-LUMO gap              0.186169187758 eV    ::
         :: SCC energy                -7.901210367441 Eh    ::
         :: -> dispersion             -0.001414017794 Eh    ::
         :: repulsion energy           0.074685143488 Eh    ::

    * Orbital Energies and Occupations

         #    Occupation            Energy/Eh            Energy/eV
      -------------------------------------------------------------
         1        2.0000           -0.6862686             -18.6743
         2        2.0000           -0.6361314             -17.3100
         3        2.0000           -0.5849627             -15.9176
         4        2.0000           -0.5620853             -15.2951
         5        2.0000           -0.4832688             -13.1504
         6        2.0000           -0.4510237             -12.2730
         7        1.0000           -0.4013188             -10.9204
         8        1.0000           -0.3817250             -10.3873
         9        0.9734           -0.3538820              -9.6296 (HOMO)
        10        0.0266           -0.3470402              -9.4434 (LUMO)
        11                          0.1064668               2.8971
        12                          0.1362181               3.7067
        13                          0.1600222               4.3544
        14                          0.3086035               8.3975
      -------------------------------------------------------------
                  HL-Gap            0.0068418 Eh            0.1862 eV

     #   Z        covCN         q      C6AA      Î±(0)
     1   6 C      3.730     0.085    19.255     6.264
     2   7 N      0.913    -0.233    26.103     7.388
     3   6 C      0.981    -0.167    41.439    10.812
     4   1 H      0.921     0.158     1.341     1.811
     5   1 H      0.921     0.158     1.341     1.811

Wiberg/Mayer (AO) data.
largest (>0.10) Wiberg bond orders for each atom
          total WBO             WBO to atom ...

molecular dipole:
                 x           y           z       tot (Debye)
 q only:        0.066      -0.917       0.033
   full:        0.007      -1.310       0.051       3.332

 projected vibrational frequencies (cm-1)
eigval :       -0.00    -0.00    -0.00     0.00     0.00     0.00
eigval :     -539.86   462.51   818.84   982.36  1012.73  1126.05
eigval :     1236.11  2632.47  2668.32

   temp. (K)  partition function   enthalpy   heat capacity  entropy
                                   cal/mol     cal/K/mol   cal/K/mol   J/K/mol
  10.00  VIB   1.00                    0.000      0.000     -0.000
         ROT   56.0                   29.809      2.981     10.980
         INT   56.0                   29.809      2.981     10.980
         TR   0.151E+25               49.681      4.968     20.115
         TOT                          79.4904     7.9490    31.0941   130.0976

       T/K    H(0)-H(T)+PV         H(T)/Eh          T*S/Eh         G(T)/Eh
   ------------------------------------------------------------------------
    298.15    0.421491E-02    0.291367E-01    0.281781E-01    0.958583E-03
    120.00    0.152865E-02    0.264504E-01    0.973250E-02    0.167179E-01
    100.00    0.126951E-02    0.261913E-01    0.787432E-02    0.183170E-01
     80.00    0.101392E-02    0.259357E-01    0.607143E-02    0.198643E-01
     60.00    0.760088E-03    0.256819E-01    0.433458E-02    0.213473E-01
     40.00    0.506704E-03    0.254285E-01    0.268430E-02    0.227442E-01
     20.00    0.253352E-03    0.251752E-01    0.116659E-02    0.240086E-01
     10.00    0.126676E-03    0.250485E-01    0.495516E-03    0.245530E-01 (used)
   ------------------------------------------------------------------------

         :::::::::::::::::::::::::::::::::::::::::::::::::::::
         ::                  THERMODYNAMIC                  ::
         :::::::::::::::::::::::::::::::::::::::::::::::::::::
         :: total free energy          -7.801972226541 Eh   ::
         ::.................................................::
         :: total energy               -7.826525186156 Eh   ::
         :: zero point energy           0.024921799374 Eh   ::
         :: G(RRHO) w/o ZPVE           -0.000368839758 Eh   ::
         :: G(RRHO) contrib.            0.024552959615 Eh   ::
         :::::::::::::::::::::::::::::::::::::::::::::::::::::

           -------------------------------------------------
          | TOTAL ENERGY               -7.826525186156 Eh   |
          | TOTAL ENTHALPY             -7.801476710767 Eh   |
          | TOTAL FREE ENERGY          -7.801972226541 Eh   |
          | GRADIENT NORM               0.000194533193 Eh/Î± |
          | HOMO-LUMO GAP               0.186174182600 eV   |
           -------------------------------------------------

 * finished run on 2020/05/12 at 11:44:45.217
