   * xtb version 6.2.2 (9d81278992624c895f80dd42a50cac0aa55982e2) compiled by '@Darwin' on 04/03/2020
          program call               : xtb --input C4N1_32_S_1.input C4N1_32_S_1.xyz --ohess --molden --namespace C4N1_32_S_1 output.out
          number of atoms            :                     5
          number of electrons        :                    21
          charge                     :                     0
          spin                       :                   0.5

   ID    Z sym.   atoms
    1    6 C      1-3, 5
    2    7 N      4

          :  Hamiltonian                  GFN2-xTB          :
 * total energy  :   -10.9752715 Eh     change        0.4056727E-08 Eh
 * total energy  :   -11.0155316 Eh     change       -0.4026010E-01 Eh
 * total energy  :   -11.0375663 Eh     change       -0.2203471E-01 Eh
 * total energy  :   -11.0539687 Eh     change       -0.1640238E-01 Eh
 * total energy  :   -11.0742189 Eh     change       -0.2025021E-01 Eh
 * total energy  :   -11.0773943 Eh     change       -0.3175358E-02 Eh
 * total energy  :   -11.0775777 Eh     change       -0.1834111E-03 Eh
 * total energy  :   -11.0783907 Eh     change       -0.8130265E-03 Eh
 * total energy  :   -11.0784356 Eh     change       -0.4489258E-04 Eh
 * total energy  :   -11.0784419 Eh     change       -0.6265539E-05 Eh
 * total energy  :   -11.0784430 Eh     change       -0.1160159E-05 Eh
   *** GEOMETRY OPTIMIZATION CONVERGED AFTER 11 ITERATIONS ***

 final structure:
================
5
 xtb: 6.2.2 (9d81278992624c895f80dd42a50cac0aa55982e2)
C        -0.98505226874340    0.72640219181648    0.05343398050860
C         0.35870093320158    0.82428653600742   -0.16780457552926
C         0.30977736950122   -0.85782656452993   -0.06985236113262
N         1.34138054197997   -0.03646012803761    0.04902460816217
C        -1.02480657593937   -0.65640203525636    0.13519734799112

          :  Hamiltonian                  GFN2-xTB          :
         :: gradient norm              0.000577417681 Eh/a0 ::
         :: HOMO-LUMO gap              0.767730767744 eV    ::
         :: SCC energy               -11.254500989804 Eh    ::
         :: -> dispersion             -0.002813461848 Eh    ::
         :: repulsion energy           0.176057918159 Eh    ::

    * Orbital Energies and Occupations

         #    Occupation            Energy/Eh            Energy/eV
      -------------------------------------------------------------
         1        2.0000           -0.7500828             -20.4108
         2        2.0000           -0.6876691             -18.7124
         3        2.0000           -0.6448192             -17.5464
         4        2.0000           -0.5928849             -16.1332
         5        2.0000           -0.5814568             -15.8222
         6        2.0000           -0.5754344             -15.6584
         7        2.0000           -0.5099247             -13.8758
         8        2.0000           -0.4640734             -12.6281
         9        2.0000           -0.4430827             -12.0569
        10        2.0000           -0.4312691             -11.7354
        11        1.0000           -0.4067797             -11.0690 (HOMO)
        12        0.0000           -0.3785661             -10.3013 (LUMO)
        13                         -0.2902261              -7.8975
        14                         -0.2636251              -7.1736
        15                         -0.1997427              -5.4353
        16                          0.1411612               3.8412
        17                          0.1841920               5.0121
        18                          0.3413650               9.2890
        19                          0.4530931              12.3293
        20                          0.5882352              16.0067
      -------------------------------------------------------------
                  HL-Gap            0.0282136 Eh            0.7677 eV

     #   Z        covCN         q      C6AA      Î±(0)
     1   6 C      2.352    -0.033    29.933     8.900
     2   6 C      3.215     0.113    24.900     8.119
     3   6 C      3.213     0.113    24.913     8.122
     4   7 N      1.826    -0.160    25.259     7.447
     5   6 C      2.354    -0.032    29.911     8.897

Wiberg/Mayer (AO) data.
largest (>0.10) Wiberg bond orders for each atom
          total WBO             WBO to atom ...

molecular dipole:
                 x           y           z       tot (Debye)
 q only:       -0.141      -0.001      -0.077
   full:       -0.065      -0.008      -0.145       0.405

 projected vibrational frequencies (cm-1)
eigval :       -0.00    -0.00     0.00     0.00     0.00     0.00
eigval :     -420.70  -196.47   441.35   659.86   863.26  1026.17
eigval :     1240.60  1335.36  1547.85

   temp. (K)  partition function   enthalpy   heat capacity  entropy
                                   cal/mol     cal/K/mol   cal/K/mol   J/K/mol
  10.00  VIB   1.00                    0.000      0.000     -0.000
         ROT   165.                   29.809      2.981     13.128
         INT   165.                   29.809      2.981     13.128
         TR   0.290E+25               49.681      4.968     21.419
         TOT                          79.4904     7.9490    34.5474   144.5462

       T/K    H(0)-H(T)+PV         H(T)/Eh          T*S/Eh         G(T)/Eh
   ------------------------------------------------------------------------
    298.15    0.430123E-02    0.205091E-01    0.299430E-01   -0.943393E-02
    120.00    0.153154E-02    0.177394E-01    0.103964E-01    0.734307E-02
    100.00    0.127052E-02    0.174784E-01    0.842583E-02    0.905258E-02
     80.00    0.101415E-02    0.172220E-01    0.651195E-02    0.107101E-01
     60.00    0.760107E-03    0.169680E-01    0.466480E-02    0.123032E-01
     40.00    0.506704E-03    0.167146E-01    0.290444E-02    0.138102E-01
     20.00    0.253352E-03    0.164612E-01    0.127666E-02    0.151846E-01
     10.00    0.126676E-03    0.163346E-01    0.550547E-03    0.157840E-01 (used)
   ------------------------------------------------------------------------

         :::::::::::::::::::::::::::::::::::::::::::::::::::::
         ::                  THERMODYNAMIC                  ::
         :::::::::::::::::::::::::::::::::::::::::::::::::::::
         :: total free energy         -11.062659031931 Eh   ::
         ::.................................................::
         :: total energy              -11.078443044268 Eh   ::
         :: zero point energy           0.016207883722 Eh   ::
         :: G(RRHO) w/o ZPVE           -0.000423871385 Eh   ::
         :: G(RRHO) contrib.            0.015784012338 Eh   ::
         :::::::::::::::::::::::::::::::::::::::::::::::::::::

           -------------------------------------------------
          | TOTAL ENERGY              -11.078443044268 Eh   |
          | TOTAL ENTHALPY            -11.062108484530 Eh   |
          | TOTAL FREE ENERGY         -11.062659031931 Eh   |
          | GRADIENT NORM               0.000577440636 Eh/Î± |
          | HOMO-LUMO GAP               0.767730982143 eV   |
           -------------------------------------------------

 * finished run on 2020/05/12 at 11:44:12.453
