 Gaussian 16, Revision B.01,

 --------------------------------------------------------
 #P M062X/cc-pvtz nosymm opt(noeigentest) optcyc=120 freq
 --------------------------------------------------------

 -----
 Title
 -----
 Symbolic Z-matrix:
 Charge =  0 Multiplicity = 1

 SCF Done:  E(RM062X) =  -381.931486012     A.U. after   14 cycles
 SCF Done:  E(RM062X) =  -381.939150662     A.U. after   14 cycles
 SCF Done:  E(RM062X) =  -381.939354454     A.U. after   10 cycles
 SCF Done:  E(RM062X) =  -381.939354962     A.U. after    7 cycles
 Optimization completed.
    -- Stationary point found.
 Normal termination of Gaussian 16 at Wed Sep 30 16:37:06 2020.

 -------------------------------------------------------------------
 #P Geom=AllCheck Guess=TCheck SCRF=Check GenChk RM062X/CC-pVTZ Freq
 -------------------------------------------------------------------

 Structure from the checkpoint file:  "input.chk"
 -----
 Title
 -----
 Charge =  0 Multiplicity = 1

 SCF Done:  E(RM062X) =  -381.939354962     A.U. after    1 cycles

  Exact polarizability:  50.587  -0.000  50.587  -0.000   0.000 413.601
 Approx polarizability:  62.845  -0.000  62.845  -0.000   0.000 541.274

                      1                      2                      3
                      A                      A                      A
 Frequencies --     38.7705                38.7705               108.5222
 Red. masses --      6.3946                 6.3946                 6.1652
 Frc consts  --      0.0057                 0.0057                 0.0428
 IR Inten    --      1.6081                 1.6081                 0.0000

                      4                      5                      6
                      A                      A                      A
 Frequencies --    108.5222               203.5027               203.5027
 Red. masses --      6.1652                 6.2021                 6.2021
 Frc consts  --      0.0428                 0.1513                 0.1513
 IR Inten    --      0.0000                 3.9610                 3.9610

                      7                      8                      9
                      A                      A                      A
 Frequencies --    300.1217               300.1217               389.5771
 Red. masses --      7.2205                 7.2205                 8.8857
 Frc consts  --      0.3832                 0.3832                 0.7946
 IR Inten    --      0.0000                 0.0000                 0.0000

                     10                     11                     12
                      A                      A                      A
 Frequencies --    441.7294               441.7294               512.7118
 Red. masses --      8.3624                 8.3624                 8.8105
 Frc consts  --      0.9614                 0.9614                 1.3646
 IR Inten    --      2.5099                 2.5099                 0.0000

                     13                     14                     15
                      A                      A                      A
 Frequencies --    512.7118               558.7230               558.7230
 Red. masses --      8.8105                10.0188                10.0188
 Frc consts  --      1.3646                 1.8427                 1.8427
 IR Inten    --      0.0000                 1.6835                 1.6835

                     16                     17                     18
                      A                      A                      A
 Frequencies --    581.9129               581.9129               713.5538
 Red. masses --     11.4400                11.4400                 1.2908
 Frc consts  --      2.2824                 2.2824                 0.3872
 IR Inten    --      0.0000                 0.0000                 0.0000

                     19                     20                     21
                      A                      A                      A
 Frequencies --    713.5538               714.3807               714.3807
 Red. masses --      1.2908                 1.2928                 1.2928
 Frc consts  --      0.3872                 0.3887                 0.3887
 IR Inten    --      0.0000                82.3734                82.3734

                     22                     23                     24
                      A                      A                      A
 Frequencies --    762.1622              1104.6751              1390.5317
 Red. masses --      9.1274                 9.6788                10.7871
 Frc consts  --      3.1239                 6.9589                12.2890
 IR Inten    --      5.8378                 0.0000                 1.2190

                     25                     26                     27
                      A                      A                      A
 Frequencies --   2166.8061              2214.1893              2315.5631
 Red. masses --      7.4881                 6.4681                 8.6883
 Frc consts  --     20.7139                18.6834                27.4472
 IR Inten    --      0.0000                 2.2892                 0.0000

                     28                     29                     30
                      A                      A                      A
 Frequencies --   2329.9025              2372.3260              3480.5129
 Red. masses --     11.9600                10.7507                 1.1619
 Frc consts  --     38.2523                35.6482                 8.2928
 IR Inten    --      0.0000                 1.0215               351.4773

                     31
                      A
 Frequencies --   3482.7696
 Red. masses --      1.1617
 Frc consts  --      8.3024
 IR Inten    --      0.0000

 - Thermochemistry -
 -------------------
 Temperature   298.150 Kelvin.  Pressure   1.00000 Atm.
 Atom     1 has atomic number  6 and mass  12.00000

 Molecular mass:   122.01565 amu.
 Principal axes and moments of inertia in atomic units:
                           1         2         3
     Eigenvalues --     0.000006147.986276147.98627
           X           -0.00000   0.83643   0.54807
           Y            0.00000  -0.54807   0.83643
           Z            1.00000   0.00000   0.00000
 This molecule is a prolate symmetric top.
 Rotational symmetry number  1.
 Warning -- assumption of classical behavior for rotation
           may cause significant error
 Rotational temperature (Kelvin)      0.01409
 Rotational constant (GHZ):           0.293550
 Zero-point vibrational energy     181574.4 (Joules/Mol)
                                   43.39733 (Kcal/Mol)
 Warning -- explicit consideration of  17 degrees of freedom as
           vibrations may cause significant error
 Vibrational temperatures:     55.78    55.78   156.14   156.14   292.79
          (Kelvin)            292.79   431.81   431.81   560.51   635.55
                              635.55   737.68   737.68   803.88   803.88
                              837.24   837.24  1026.64  1026.64  1027.83
                             1027.83  1096.58  1589.38  2000.66  3117.55
                             3185.72  3331.58  3352.21  3413.25  5007.68
                             5010.93

 Zero-point correction=                           0.069158 (Hartree/Particle)
 Thermal correction to Energy=                    0.079175
 Thermal correction to Enthalpy=                  0.080119
 Thermal correction to Gibbs Free Energy=         0.035573
 Sum of electronic and zero-point Energies=           -381.870197
 Sum of electronic and thermal Energies=              -381.860180
 Sum of electronic and thermal Enthalpies=            -381.859236
 Sum of electronic and thermal Free Energies=         -381.903782

                     E (Thermal)             CV                S
                      KCal/Mol        Cal/Mol-Kelvin    Cal/Mol-Kelvin
 Total                   49.683             35.241             93.755
 Electronic               0.000              0.000              0.000
 Translational            0.889              2.981             40.311
 Rotational               0.592              1.987             21.780
 Vibrational             48.202             30.273             31.664
 Vibration     1          0.594              1.981              5.321
 Vibration     2          0.594              1.981              5.321
 Vibration     3          0.606              1.942              3.295
 Vibration     4          0.606              1.942              3.295
 Vibration     5          0.639              1.835              2.101
 Vibration     6          0.639              1.835              2.101
 Vibration     7          0.693              1.673              1.416
 Vibration     8          0.693              1.673              1.416
 Vibration     9          0.758              1.492              1.002
 Vibration    10          0.801              1.379              0.821
 Vibration    11          0.801              1.379              0.821
 Vibration    12          0.868              1.222              0.627
 Vibration    13          0.868              1.222              0.627
 Vibration    14          0.914              1.121              0.526
 Vibration    15          0.914              1.121              0.526
 Vibration    16          0.939              1.070              0.482
 Vibration    17          0.939              1.070              0.482

 Optimization completed.
    -- Stationary point found.
 Normal termination of Gaussian 16 at Wed Sep 30 16:41:15 2020.
 Gaussian 16:  ES64L-G16RevB.01 20-Dec-2017

 -----------------------------------------------
 #P CCSD(T)/aug-cc-pvtz geom=allcheck guess=read
 -----------------------------------------------

 Structure from the checkpoint file:  "input.chk"
 -----
 Title
 -----
 Charge =  0 Multiplicity = 1

                         Standard orientation:
 ---------------------------------------------------------------------
 Center     Atomic      Atomic             Coordinates (Angstroms)
 Number     Number       Type             X           Y           Z
 ---------------------------------------------------------------------
      1          6           0        0.000000    0.000000    5.740548
      2          6           0        0.000000    0.000000    4.538866
      3          6           0        0.000000    0.000000    3.173254
      4          6           0        0.000000    0.000000    1.963243
      5          6           0       -0.000000    0.000000    0.605924
      6          6           0       -0.000000    0.000000   -0.605924
      7          6           0       -0.000000    0.000000   -1.963243
      8          6           0        0.000000    0.000000   -3.173254
      9          6           0        0.000000    0.000000   -4.538866
     10          6           0        0.000000    0.000000   -5.740548
     11          1           0        0.000000    0.000000    6.803607
     12          1           0        0.000000    0.000000   -6.803607
 ---------------------------------------------------------------------

 SCF Done:  E(RHF) =  -379.663920984     A.U. after   11 cycles
 E2 =    -0.1499509933D+01 EUMP2 =    -0.38116343091692D+03
 CCSD(T)
 CCSD(T)= -0.38124923318D+03

 The electronic state is 1-SG.
 Alpha  occ. eigenvalues --  -11.29082 -11.28980 -11.28971 -11.28727 -11.28492
 Alpha  occ. eigenvalues --  -11.28482 -11.27573 -11.27573 -11.26964 -11.26964
 Alpha  occ. eigenvalues --   -1.13506  -1.11516  -1.08648  -1.05164  -1.01993
 Alpha  occ. eigenvalues --   -0.91866  -0.86860  -0.81982  -0.77957  -0.72722
 Alpha  occ. eigenvalues --   -0.72587  -0.54773  -0.54773  -0.51488  -0.51488
 Alpha  occ. eigenvalues --   -0.46460  -0.46460  -0.39987  -0.39987  -0.33207
 Alpha  occ. eigenvalues --   -0.33207
 Alpha virt. eigenvalues --    0.02454   0.02619   0.02901   0.02901   0.05184
 Alpha virt. eigenvalues --    0.06060   0.07525   0.07525   0.07895   0.07895
 Alpha virt. eigenvalues --    0.08601   0.09112   0.09112   0.10186   0.11171

 Mulliken charges:
               1
     1  C   -1.680565
     2  C    1.069621
     3  C   -0.037932
     4  C    0.205487
     5  C   -0.003253
     6  C   -0.003253
     7  C    0.205487
     8  C   -0.037932
     9  C    1.069621
    10  C   -1.680565
    11  H    0.446642
    12  H    0.446642
 Sum of Mulliken charges =  -0.00000

 Dipole moment (field-independent basis, Debye):
    X=             -0.0000    Y=             -0.0000    Z=              0.0000  Tot=              0.0000
 Quadrupole moment (field-independent basis, Debye-Ang):
   XX=            -59.0220   YY=            -59.0220   ZZ=            -18.5338
   XY=             -0.0000   XZ=             -0.0000   YZ=              0.0000

 -381.1358804\MP4SDQ=-381.1548268\CCSD=-381.1522092\CCSD(T)=-381.249233
 Normal termination of Gaussian 16 at Thu Oct  1 00:23:06 2020.
