   * xtb version 6.2.2 (9d81278992624c895f80dd42a50cac0aa55982e2) compiled by '@Darwin' on 04/03/2020
          program call               : xtb --input H1N1O1_1_S_2.input H1N1O1_1_S_2.xyz --ohess --molden --namespace H1N1O1_1_S_2 output.out
          number of atoms            :                     3
          number of electrons        :                    12
          charge                     :                     0
          spin                       :                   1.0

   ID    Z sym.   atoms
    1    8 O      1
    2    7 N      2
    3    1 H      3

          :  Hamiltonian                  GFN2-xTB          :
 * total energy  :    -7.2971943 Eh     change       -0.5903669E-09 Eh
 * total energy  :    -7.3124642 Eh     change       -0.1526991E-01 Eh
 * total energy  :    -7.3155403 Eh     change       -0.3076082E-02 Eh
 * total energy  :    -7.3163217 Eh     change       -0.7814793E-03 Eh
 * total energy  :    -7.3163720 Eh     change       -0.5025606E-04 Eh
 * total energy  :    -7.3163766 Eh     change       -0.4640240E-05 Eh
   *** GEOMETRY OPTIMIZATION CONVERGED AFTER 6 ITERATIONS ***

 final structure:
================
3
 xtb: 6.2.2 (9d81278992624c895f80dd42a50cac0aa55982e2)
O         1.03834621124653   -0.12212083512114    0.00000000000000
N        -0.09759904724378    0.34425243302793    0.00000000000000
H        -0.94074716400275   -0.22213159790679    0.00000000000000

          :  Hamiltonian                  GFN2-xTB          :
         :: gradient norm              0.000197262133 Eh/a0 ::
         :: HOMO-LUMO gap             11.151824095313 eV    ::
         :: SCC energy                -7.349528911385 Eh    ::
         :: -> dispersion             -0.000385743611 Eh    ::
         :: repulsion energy           0.033152273182 Eh    ::

    * Orbital Energies and Occupations

         #    Occupation            Energy/Eh            Energy/eV
      -------------------------------------------------------------
         1        2.0000           -0.7472143             -20.3327
         2        2.0000           -0.6459202             -17.5764
         3        2.0000           -0.5939721             -16.1628
Molecule has the following symmetry elements: (sigma)
It seems to be the Cs point group
         4        2.0000           -0.5719642             -15.5639
         5        2.0000           -0.5442571             -14.8100
         6        1.0000           -0.3928873             -10.6910
         7        1.0000           -0.3510771              -9.5533 (HOMO)
         8                          0.0587449               1.5985 (LUMO)
         9                          0.2911486               7.9226
      -------------------------------------------------------------
                  HL-Gap            0.4098220 Eh           11.1518 eV

     #   Z        covCN         q      C6AA      Î±(0)
     1   8 O      0.923    -0.191    17.898     5.674
     2   7 N      1.783    -0.005    22.023     6.950
     3   1 H      0.860     0.196     1.128     1.664

Wiberg/Mayer (AO) data.
largest (>0.10) Wiberg bond orders for each atom
          total WBO             WBO to atom ...

molecular dipole:
                 x           y           z       tot (Debye)
 q only:       -0.722      -0.041       0.000
   full:       -0.904      -0.213       0.000       2.360

 projected vibrational frequencies (cm-1)
eigval :       -0.00    -0.00     0.00     0.00     0.00     0.00
eigval :     1016.81  1637.96  3229.97

   temp. (K)  partition function   enthalpy   heat capacity  entropy
                                   cal/mol     cal/K/mol   cal/K/mol   J/K/mol
  10.00  VIB   1.00                    0.000      0.000     -0.000
         ROT   4.81                   29.809      2.981      6.101
         INT   4.81                   29.809      2.981      6.101
         TR   0.103E+25               49.681      4.968     19.353
         TOT                          79.4904     7.9490    25.4540   106.4994

       T/K    H(0)-H(T)+PV         H(T)/Eh          T*S/Eh         G(T)/Eh
   ------------------------------------------------------------------------
    298.15    0.381413E-02    0.172206E-01    0.249572E-01   -0.773661E-02
    120.00    0.152014E-02    0.149266E-01    0.864383E-02    0.628274E-02
    100.00    0.126676E-02    0.146732E-01    0.697229E-02    0.770091E-02
     80.00    0.101341E-02    0.144198E-01    0.535176E-02    0.906808E-02
     60.00    0.760056E-03    0.141665E-01    0.379523E-02    0.103713E-01
     40.00    0.506704E-03    0.139131E-01    0.232477E-02    0.115884E-01
     20.00    0.253352E-03    0.136598E-01    0.986827E-03    0.126730E-01
     10.00    0.126676E-03    0.135331E-01    0.405635E-03    0.131275E-01 (used)
   ------------------------------------------------------------------------

         :::::::::::::::::::::::::::::::::::::::::::::::::::::
         ::                  THERMODYNAMIC                  ::
         :::::::::::::::::::::::::::::::::::::::::::::::::::::
         :: total free energy          -7.303249160109 Eh   ::
         ::.................................................::
         :: total energy               -7.316376638303 Eh   ::
         :: zero point energy           0.013406437071 Eh   ::
         :: G(RRHO) w/o ZPVE           -0.000278958877 Eh   ::
         :: G(RRHO) contrib.            0.013127478194 Eh   ::
         :::::::::::::::::::::::::::::::::::::::::::::::::::::

           -------------------------------------------------
          | TOTAL ENERGY               -7.316376638303 Eh   |
          | TOTAL ENTHALPY             -7.302843525217 Eh   |
          | TOTAL FREE ENERGY          -7.303249160109 Eh   |
          | GRADIENT NORM               0.000197240209 Eh/Î± |
          | HOMO-LUMO GAP              11.151824066064 eV   |
           -------------------------------------------------

 * finished run on 2020/05/12 at 11:44:44.198
