   * xtb version 6.2.2 (9d81278992624c895f80dd42a50cac0aa55982e2) compiled by '@Darwin' on 04/03/2020
          program call               : xtb --input H2C2O1_2_S_0.input H2C2O1_2_S_0.xyz --ohess --molden --namespace H2C2O1_2_S_0 output.out
          number of atoms            :                     5
          number of electrons        :                    16
          charge                     :                     0
          spin                       :                   0.0

   ID    Z sym.   atoms
    1    6 C      1, 2
    2    8 O      3
    3    1 H      4, 5

          :  Hamiltonian                  GFN2-xTB          :
 * total energy  :    -9.1104996 Eh     change        0.1412737E-09 Eh
 * total energy  :    -9.1549468 Eh     change       -0.4444717E-01 Eh
 * total energy  :    -9.1594539 Eh     change       -0.4507159E-02 Eh
 * total energy  :    -9.1732691 Eh     change       -0.1381521E-01 Eh
 * total energy  :    -9.1760261 Eh     change       -0.2756924E-02 Eh
 * total energy  :    -9.1786654 Eh     change       -0.2639357E-02 Eh
 * total energy  :    -9.1797763 Eh     change       -0.1110859E-02 Eh
 * total energy  :    -9.1803029 Eh     change       -0.5266172E-03 Eh
 * total energy  :    -9.1810272 Eh     change       -0.7243003E-03 Eh
 * total energy  :    -9.1824032 Eh     change       -0.1375963E-02 Eh
 * total energy  :    -9.2785832 Eh     change       -0.2292054E-03 Eh
 * total energy  :    -9.2786469 Eh     change       -0.6365855E-04 Eh
 * total energy  :    -9.2786579 Eh     change       -0.1107250E-04 Eh
 * total energy  :    -9.2786643 Eh     change       -0.6368473E-05 Eh
 * total energy  :    -9.2786716 Eh     change       -0.7266028E-05 Eh
 * total energy  :    -9.2786893 Eh     change       -0.1772002E-04 Eh
 * total energy  :    -9.2786945 Eh     change       -0.5180106E-05 Eh
 * total energy  :    -9.2786964 Eh     change       -0.1904350E-05 Eh
 * total energy  :    -9.2786967 Eh     change       -0.3004111E-06 Eh
   *** GEOMETRY OPTIMIZATION CONVERGED AFTER 33 ITERATIONS ***

 final structure:
================
5
 xtb: 6.2.2 (9d81278992624c895f80dd42a50cac0aa55982e2)
C         0.02517455365979   -0.13281278976752    0.11509163120585
C        -1.07337559861646    0.29139544755327   -0.09414915549569
O         1.20441469014048   -0.62609486244084    0.37556007185199
H        -2.04298878254506    0.64453715065266   -0.26086617700266
H         1.88677413736126   -0.17702494599754   -0.13563637055944

          :  Hamiltonian                  GFN2-xTB          :
         :: gradient norm              0.000423473187 Eh/a0 ::
         :: HOMO-LUMO gap              6.670248720208 eV    ::
         :: SCC energy                -9.449651934697 Eh    ::
         :: -> dispersion             -0.001322880562 Eh    ::
         :: repulsion energy           0.170955357968 Eh    ::

    * Orbital Energies and Occupations

         #    Occupation            Energy/Eh            Energy/eV
      -------------------------------------------------------------
         1        2.0000           -0.7150906             -19.4586
         2        2.0000           -0.6311057             -17.1733
         3        2.0000           -0.5956307             -16.2079
         4        2.0000           -0.5520274             -15.0214
         5        2.0000           -0.5234312             -14.2433
         6        2.0000           -0.4904072             -13.3447
         7        2.0000           -0.4074357             -11.0869
         8        2.0000           -0.3877921             -10.5524 (HOMO)
         9                         -0.1426650              -3.8821 (LUMO)
        10                         -0.1243524              -3.3838
        11                          0.0391370               1.0650
        12                          0.1652336               4.4962
        13                          0.3722853              10.1304
        14                          1.4886837              40.5091
      -------------------------------------------------------------
                  HL-Gap            0.2451271 Eh            6.6702 eV

     #   Z        covCN         q      C6AA      Î±(0)
     1   6 C      1.836     0.111    28.402     8.610
     2   6 C      1.909    -0.166    35.865     9.672
     3   8 O      1.660    -0.334    19.615     5.979
     4   1 H      0.928     0.085     1.932     2.173
     5   1 H      0.805     0.304     0.708     1.322

Wiberg/Mayer (AO) data.
largest (>0.10) Wiberg bond orders for each atom
          total WBO             WBO to atom ...

molecular dipole:
                 x           y           z       tot (Debye)
 q only:        0.340       0.277      -0.303
   full:        0.440       0.397      -0.427       1.857

 projected vibrational frequencies (cm-1)
eigval :       -0.00    -0.00    -0.00     0.00     0.00     0.00
eigval :      270.67   299.28   593.08   634.56  1086.29  1155.02
eigval :     2350.48  3434.59  3501.27

   temp. (K)  partition function   enthalpy   heat capacity  entropy
                                   cal/mol     cal/K/mol   cal/K/mol   J/K/mol
  10.00  VIB   1.00                    0.000      0.000     -0.003
         ROT   20.9                   29.809      2.981      9.026
         INT   20.9                   29.809      2.981      9.022
         TR   0.162E+25               49.681      4.968     20.259
         TOT                          79.4904     7.9490    29.2816   122.5143

       T/K    H(0)-H(T)+PV         H(T)/Eh          T*S/Eh         G(T)/Eh
   ------------------------------------------------------------------------
    298.15    0.500828E-02    0.353654E-01    0.286262E-01    0.673919E-02
    120.00    0.161254E-02    0.319697E-01    0.949530E-02    0.224744E-01
    100.00    0.131188E-02    0.316690E-01    0.763897E-02    0.240300E-01
     80.00    0.102936E-02    0.313865E-01    0.585934E-02    0.255271E-01
     60.00    0.762976E-03    0.311201E-01    0.416491E-02    0.269552E-01
     40.00    0.506806E-03    0.308639E-01    0.256905E-02    0.282949E-01
     20.00    0.253352E-03    0.306105E-01    0.110887E-02    0.295016E-01
     10.00    0.126676E-03    0.304838E-01    0.466632E-03    0.300172E-01 (used)
   ------------------------------------------------------------------------

         :::::::::::::::::::::::::::::::::::::::::::::::::::::
         ::                  THERMODYNAMIC                  ::
         :::::::::::::::::::::::::::::::::::::::::::::::::::::
         :: total free energy          -9.248679508390 Eh   ::
         ::.................................................::
         :: total energy               -9.278696669996 Eh   ::
         :: zero point energy           0.030357117867 Eh   ::
         :: G(RRHO) w/o ZPVE           -0.000339956261 Eh   ::
         :: G(RRHO) contrib.            0.030017161606 Eh   ::
         :::::::::::::::::::::::::::::::::::::::::::::::::::::

           -------------------------------------------------
          | TOTAL ENERGY               -9.278696669996 Eh   |
          | TOTAL ENTHALPY             -9.248212876114 Eh   |
          | TOTAL FREE ENERGY          -9.248679508390 Eh   |
          | GRADIENT NORM               0.000423720583 Eh/Î± |
          | HOMO-LUMO GAP               6.670248049268 eV   |
           -------------------------------------------------

 * finished run on 2020/05/12 at 11:45:13.746
