   * xtb version 6.2.2 (9d81278992624c895f80dd42a50cac0aa55982e2) compiled by '@Darwin' on 04/03/2020
          program call               : xtb --input C4N1_51_S_1.input C4N1_51_S_1.xyz --ohess --molden --namespace C4N1_51_S_1 output.out
          number of atoms            :                     5
          number of electrons        :                    21
          charge                     :                     0
          spin                       :                   0.5

   ID    Z sym.   atoms
    1    6 C      1, 3-5
    2    7 N      2

          :  Hamiltonian                  GFN2-xTB          :
 * total energy  :   -11.0210774 Eh     change       -0.1676881E-10 Eh
 * total energy  :   -11.0458967 Eh     change       -0.2481934E-01 Eh
 * total energy  :   -11.0516634 Eh     change       -0.5766678E-02 Eh
 * total energy  :   -11.0518655 Eh     change       -0.2021073E-03 Eh
 * total energy  :   -11.0518972 Eh     change       -0.3173995E-04 Eh
 * total energy  :   -11.0519002 Eh     change       -0.2948965E-05 Eh
 * total energy  :   -11.0519509 Eh     change       -0.5071265E-04 Eh
 * total energy  :   -11.0534168 Eh     change       -0.1465894E-02 Eh
 * total energy  :   -11.0581088 Eh     change       -0.4692044E-02 Eh
 * total energy  :   -11.0631930 Eh     change       -0.5084127E-02 Eh
 * total energy  :   -11.0695651 Eh     change       -0.6372115E-02 Eh
 * total energy  :   -11.0702768 Eh     change       -0.7116877E-03 Eh
 * total energy  :   -11.0704175 Eh     change       -0.1407042E-03 Eh
 * total energy  :   -11.0706183 Eh     change       -0.2008116E-03 Eh
 * total energy  :   -11.0707924 Eh     change       -0.1741533E-03 Eh
 * total energy  :   -11.0708682 Eh     change       -0.7575348E-04 Eh
 * total energy  :   -11.0708784 Eh     change       -0.1018342E-04 Eh
 * total energy  :   -11.0708784 Eh     change       -0.2487245E-07 Eh
   *** GEOMETRY OPTIMIZATION CONVERGED AFTER 18 ITERATIONS ***

 final structure:
================
5
 xtb: 6.2.2 (9d81278992624c895f80dd42a50cac0aa55982e2)
C         0.10245018558736    0.79632944304094    0.74546958322792
N        -0.10873353703391    0.20115779745430   -0.69442445931493
C        -0.01500008229913   -0.95812415050933    0.36357253760491
C        -1.06485723837818    0.02170377829407    0.42413788602955
C         1.08614067212387   -0.06106686827998    0.14286745245255

          :  Hamiltonian                  GFN2-xTB          :
         :: gradient norm              0.000088055368 Eh/a0 ::
         :: HOMO-LUMO gap              2.487901538711 eV    ::
         :: SCC energy               -11.198771327515 Eh    ::
         :: -> dispersion             -0.002479500339 Eh    ::
         :: repulsion energy           0.127892911135 Eh    ::

    * Orbital Energies and Occupations

         #    Occupation            Energy/Eh            Energy/eV
      -------------------------------------------------------------
         1        2.0000           -0.7940989             -21.6085
         2        2.0000           -0.6840367             -18.6136
         3        2.0000           -0.6660723             -18.1248
         4        2.0000           -0.6416707             -17.4607
         5        2.0000           -0.5506268             -14.9833
         6        2.0000           -0.5399515             -14.6928
         7        2.0000           -0.5041569             -13.7188
         8        2.0000           -0.5014960             -13.6464
         9        2.0000           -0.4972480             -13.5308
        10        2.0000           -0.4770406             -12.9809
        11        1.0000           -0.4216703             -11.4742 (HOMO)
        12                         -0.3302416              -8.9863 (LUMO)
        13                         -0.2455214              -6.6810
        14                         -0.2378420              -6.4720
        15                         -0.0964789              -2.6253
        16                         -0.0618466              -1.6829
        17                          0.0808770               2.2008
        18                          0.0931441               2.5346
        19                          0.2320397               6.3141
        20                          0.4130856              11.2406
      -------------------------------------------------------------
                  HL-Gap            0.0914287 Eh            2.4879 eV

     #   Z        covCN         q      C6AA      Î±(0)
     1   6 C      3.691     0.015    20.499     6.479
     2   7 N      3.594    -0.083    22.857     7.101
     3   6 C      3.691     0.015    20.499     6.479
     4   6 C      3.043     0.026    27.374     8.581
     5   6 C      3.043     0.026    27.374     8.581

Wiberg/Mayer (AO) data.
largest (>0.10) Wiberg bond orders for each atom
          total WBO             WBO to atom ...

molecular dipole:
                 x           y           z       tot (Debye)
 q only:        0.021      -0.038       0.170
   full:       -0.004       0.007      -0.029       0.077
Molecule has the following symmetry elements: (C2) 2*(sigma)
It seems to be the C2v point group

 projected vibrational frequencies (cm-1)
eigval :       -0.00    -0.00     0.00     0.00     0.00     0.00
eigval :      298.77   431.74   699.11   774.41  1041.24  1049.67
eigval :     1080.65  1323.24  1421.87

   temp. (K)  partition function   enthalpy   heat capacity  entropy
                                   cal/mol     cal/K/mol   cal/K/mol   J/K/mol
  10.00  VIB   1.00                    0.000      0.000     -0.002
         ROT   63.1                   29.809      2.981     11.216
         INT   63.1                   29.809      2.981     11.214
         TR   0.290E+25               49.681      4.968     21.419
         TOT                          79.4904     7.9490    32.6336   136.5391

       T/K    H(0)-H(T)+PV         H(T)/Eh          T*S/Eh         G(T)/Eh
   ------------------------------------------------------------------------
    298.15    0.478308E-02    0.232834E-01    0.297870E-01   -0.650361E-02
    120.00    0.157134E-02    0.200717E-01    0.100814E-01    0.999024E-02
    100.00    0.128966E-02    0.197900E-01    0.814467E-02    0.116453E-01
     80.00    0.102060E-02    0.195210E-01    0.627582E-02    0.132451E-01
     60.00    0.761173E-03    0.192615E-01    0.448317E-02    0.147784E-01
     40.00    0.506734E-03    0.190071E-01    0.278255E-02    0.162245E-01
     20.00    0.253352E-03    0.187537E-01    0.121568E-02    0.175380E-01
     10.00    0.126676E-03    0.186270E-01    0.520050E-03    0.181070E-01 (used)
   ------------------------------------------------------------------------

         :::::::::::::::::::::::::::::::::::::::::::::::::::::
         ::                  THERMODYNAMIC                  ::
         :::::::::::::::::::::::::::::::::::::::::::::::::::::
         :: total free energy         -11.052771428368 Eh   ::
         ::.................................................::
         :: total energy              -11.070878402479 Eh   ::
         :: zero point energy           0.018500348024 Eh   ::
         :: G(RRHO) w/o ZPVE           -0.000393373913 Eh   ::
         :: G(RRHO) contrib.            0.018106974111 Eh   ::
         :::::::::::::::::::::::::::::::::::::::::::::::::::::

           -------------------------------------------------
          | TOTAL ENERGY              -11.070878402479 Eh   |
          | TOTAL ENTHALPY            -11.052251378440 Eh   |
          | TOTAL FREE ENERGY         -11.052771428368 Eh   |
          | GRADIENT NORM               0.000088025279 Eh/Î± |
          | HOMO-LUMO GAP               2.487900774007 eV   |
           -------------------------------------------------

 * finished run on 2020/05/12 at 11:44:21.367
