 Gaussian 16, Revision B.01,

 --------------------------------------------------------
 #P M062X/cc-pvtz nosymm opt(noeigentest) optcyc=120 freq
 --------------------------------------------------------

 -----
 Title
 -----
 Symbolic Z-matrix:
 Charge =  0 Multiplicity = 1

 SCF Done:  E(RM062X) =  -93.4221144059     A.U. after   11 cycles
 SCF Done:  E(RM062X) =  -93.4226323385     A.U. after    8 cycles
 SCF Done:  E(RM062X) =  -93.4225733730     A.U. after    9 cycles
 SCF Done:  E(RM062X) =  -93.4226334236     A.U. after    8 cycles
 Optimization completed.
    -- Stationary point found.
 Normal termination of Gaussian 16 at Fri Sep 25 11:48:39 2020.

 -------------------------------------------------------------------
 #P Geom=AllCheck Guess=TCheck SCRF=Check GenChk RM062X/CC-pVTZ Freq
 -------------------------------------------------------------------

 Structure from the checkpoint file:  "input.chk"
 -----
 Title
 -----
 Charge =  0 Multiplicity = 1

 SCF Done:  E(RM062X) =  -93.4226334236     A.U. after    1 cycles

  Exact polarizability:  11.049  -0.000  11.049  -0.005  -0.000  21.276
 Approx polarizability:  12.637  -0.000  12.637  -0.013  -0.000  30.234

                      1                      2                      3
                      A                      A                      A
 Frequencies --    810.9521              2241.4801              3423.8415
 Red. masses --      1.3470                 4.7793                 1.2097
 Frc consts  --      0.5219                14.1475                 8.3549
 IR Inten    --     35.0972                 2.9919                66.3883

 - Thermochemistry -
 -------------------
 Temperature   298.150 Kelvin.  Pressure   1.00000 Atm.
 Atom     1 has atomic number  7 and mass  14.00307

 Molecular mass:    27.01090 amu.
 Principal axes and moments of inertia in atomic units:
                           1         2         3
     Eigenvalues --     0.00001  40.08092  40.08093
           X           -0.00035   1.00000  -0.00000
           Y           -0.00000   0.00000   1.00000
           Z            1.00000   0.00035  -0.00000
 This molecule is an asymmetric top.
 Rotational symmetry number  1.
 Rotational temperatures (Kelvin) ************     2.16098     2.16098
 Rotational constants (GHZ):      ************    45.02743    45.02742
 Zero-point vibrational energy      38736.7 (Joules/Mol)
                                    9.25830 (Kcal/Mol)
 Vibrational temperatures:   1166.78  3224.99  4926.14
          (Kelvin)

 Zero-point correction=                           0.014754 (Hartree/Particle)
 Thermal correction to Energy=                    0.017662
 Thermal correction to Enthalpy=                  0.018606
 Thermal correction to Gibbs Free Energy=        -0.000210
 Sum of electronic and zero-point Energies=            -93.407879
 Sum of electronic and thermal Energies=               -93.404971
 Sum of electronic and thermal Enthalpies=             -93.404027
 Sum of electronic and thermal Free Energies=          -93.422843

                     E (Thermal)             CV                S
                      KCal/Mol        Cal/Mol-Kelvin    Cal/Mol-Kelvin
 Total                   11.083              6.599             39.601
 Electronic               0.000              0.000              0.000
 Translational            0.889              2.981             35.816
 Rotational               0.889              2.981              3.586
 Vibrational              9.306              0.638              0.199

 Optimization completed.
    -- Stationary point found.
 Normal termination of Gaussian 16 at Fri Sep 25 11:48:56 2020.
 Gaussian 16:  ES64L-G16RevB.01 20-Dec-2017

 -----------------------------------------------
 #P CCSD(T)/aug-cc-pvtz geom=allcheck guess=read
 -----------------------------------------------

 Structure from the checkpoint file:  "input.chk"
 -----
 Title
 -----
 Charge =  0 Multiplicity = 1

                         Standard orientation:
 ---------------------------------------------------------------------
 Center     Atomic      Atomic             Coordinates (Angstroms)
 Number     Number       Type             X           Y           Z
 ---------------------------------------------------------------------
      1          7           0        0.000132   -0.648645    0.000000
      2          6           0        0.000132    0.495604    0.000000
      3          1           0       -0.001717    1.566894    0.000000
 ---------------------------------------------------------------------

 SCF Done:  E(RHF) =  -92.9101200923     A.U. after    9 cycles
 E2 =    -0.3485329277D+00 EUMP2 =    -0.93258653020059D+02
 CCSD(T)
 CCSD(T)= -0.93280604171D+02

 The electronic state is 1-A'.
 Alpha  occ. eigenvalues --  -15.59675 -11.28954  -1.24127  -0.80964  -0.58155
 Alpha  occ. eigenvalues --   -0.49952  -0.49952
 Alpha virt. eigenvalues --    0.02311   0.07168   0.07297   0.07297   0.12765
 Alpha virt. eigenvalues --    0.13730   0.13730   0.14594   0.19901   0.19901
 Alpha virt. eigenvalues --    0.22429   0.26685   0.29391   0.29391   0.30434

 Mulliken charges:
               1
     1  N   -0.326016
     2  C   -0.421821
     3  H    0.747838
 Sum of Mulliken charges =  -0.00000

 Dipole moment (field-independent basis, Debye):
    X=             -0.0024    Y=              3.2959    Z=              0.0000  Tot=              3.2959
 Quadrupole moment (field-independent basis, Debye-Ang):
   XX=            -11.9377   YY=             -9.5344   ZZ=            -11.9377
   XY=             -0.0032   XZ=              0.0000   YZ=              0.0000

 95\MP4SDQ=-93.2634027\CCSD=-93.2624289\CCSD(T)=-93.2806042\RMSD=9.712e
 Normal termination of Gaussian 16 at Fri Sep 25 11:52:06 2020.
