   * xtb version 6.2.2 (9d81278992624c895f80dd42a50cac0aa55982e2) compiled by '@Darwin' on 04/03/2020
          program call               : xtb --input H1C3N1_32_S_2.input H1C3N1_32_S_2.xyz --ohess --molden --namespace H1C3N1_32_S_2 output.out
          number of atoms            :                     5
          number of electrons        :                    18
          charge                     :                     0
          spin                       :                   1.0

   ID    Z sym.   atoms
    1    6 C      1-3
    2    7 N      4
    3    1 H      5

          :  Hamiltonian                  GFN2-xTB          :
 * total energy  :    -9.4380002 Eh     change        0.9589733E-09 Eh
 * total energy  :    -9.4599859 Eh     change       -0.2198573E-01 Eh
 * total energy  :    -9.4811639 Eh     change       -0.2117798E-01 Eh
 * total energy  :    -9.4847586 Eh     change       -0.3594708E-02 Eh
 * total energy  :    -9.4865870 Eh     change       -0.1828375E-02 Eh
 * total energy  :    -9.4891846 Eh     change       -0.2597586E-02 Eh
 * total energy  :    -9.4900591 Eh     change       -0.8745132E-03 Eh
 * total energy  :    -9.4906707 Eh     change       -0.6116459E-03 Eh
 * total energy  :    -9.4910220 Eh     change       -0.3512798E-03 Eh
 * total energy  :    -9.4911594 Eh     change       -0.1374223E-03 Eh
 * total energy  :    -9.4911927 Eh     change       -0.3327358E-04 Eh
 * total energy  :    -9.4911971 Eh     change       -0.4372801E-05 Eh
 * total energy  :    -9.4912023 Eh     change       -0.5196937E-05 Eh
 * total energy  :    -9.4912056 Eh     change       -0.3363563E-05 Eh
 * total energy  :    -9.4912100 Eh     change       -0.4325875E-05 Eh
 * total energy  :    -9.4912152 Eh     change       -0.5231114E-05 Eh
 * total energy  :    -9.4912204 Eh     change       -0.5225162E-05 Eh
 * total energy  :    -9.4912226 Eh     change       -0.2216117E-05 Eh
   *** GEOMETRY OPTIMIZATION CONVERGED AFTER 18 ITERATIONS ***

 final structure:
================
5
 xtb: 6.2.2 (9d81278992624c895f80dd42a50cac0aa55982e2)
C         0.50384476185260    0.03182088812277    0.02283957572560
C        -0.84195637160485    0.05881317696163    0.76243147601072
C        -0.73988771908925   -0.79666111113080   -0.33407078511545
N        -0.47520789556184    0.71444502301072   -0.60250420540412
H         1.55320822440334   -0.00841797696432    0.15130393878325

          :  Hamiltonian                  GFN2-xTB          :
         :: gradient norm              0.000385376484 Eh/a0 ::
         :: HOMO-LUMO gap              6.629943032059 eV    ::
         :: SCC energy                -9.605160474338 Eh    ::
         :: -> dispersion             -0.001957512319 Eh    ::
         :: repulsion energy           0.113937809793 Eh    ::

    * Orbital Energies and Occupations

         #    Occupation            Energy/Eh            Energy/eV
      -------------------------------------------------------------
         1        2.0000           -0.7511018             -20.4385
         2        2.0000           -0.6363754             -17.3167
         3        2.0000           -0.6145479             -16.7227
         4        2.0000           -0.6035298             -16.4229
         5        2.0000           -0.5392335             -14.6733
         6        2.0000           -0.4910960             -13.3634
         7        2.0000           -0.4586865             -12.4815
         8        2.0000           -0.4530911             -12.3292
         9        1.0000           -0.4166779             -11.3384
        10        1.0000           -0.4042831             -11.0011 (HOMO)
        11                         -0.1606372              -4.3712 (LUMO)
        12                         -0.1552885              -4.2256
        13                         -0.1099415              -2.9917
        14                         -0.0121709              -0.3312
        15                          0.0622021               1.6926
        16                          0.3352945               9.1238
        17                          0.4751740              12.9301
      -------------------------------------------------------------
                  HL-Gap            0.2436460 Eh            6.6299 eV

     #   Z        covCN         q      C6AA      Î±(0)
     1   6 C      3.786     0.125    18.558     6.136
     2   6 C      2.849    -0.014    28.366     8.729
     3   6 C      2.849    -0.014    28.361     8.728
     4   7 N      2.700    -0.169    24.655     7.375
     5   1 H      0.927     0.072     2.060     2.244

Wiberg/Mayer (AO) data.
largest (>0.10) Wiberg bond orders for each atom
          total WBO             WBO to atom ...

molecular dipole:
                 x           y           z       tot (Debye)
 q only:        0.526      -0.202       0.207
   full:        1.070      -0.050       0.138       2.745

 projected vibrational frequencies (cm-1)
eigval :       -0.00    -0.00    -0.00     0.00     0.00     0.00
eigval :      172.49   630.60   668.46   770.45   863.60   943.28
eigval :     1381.81  1562.05  3293.73

   temp. (K)  partition function   enthalpy   heat capacity  entropy
                                   cal/mol     cal/K/mol   cal/K/mol   J/K/mol
  10.00  VIB   1.00                    0.000      0.000     -0.008
         ROT   77.4                   29.809      2.981     11.624
         INT   77.4                   29.809      2.981     11.616
         TR   0.217E+25               49.681      4.968     20.838
         TOT                          79.4904     7.9490    32.4541   135.7880

       T/K    H(0)-H(T)+PV         H(T)/Eh          T*S/Eh         G(T)/Eh
   ------------------------------------------------------------------------
    298.15    0.485877E-02    0.282931E-01    0.299970E-01   -0.170391E-02
    120.00    0.163688E-02    0.250712E-01    0.101532E-01    0.149180E-01
    100.00    0.133907E-02    0.247734E-01    0.818974E-02    0.165836E-01
     80.00    0.105046E-02    0.244848E-01    0.629444E-02    0.181903E-01
     60.00    0.772824E-03    0.242071E-01    0.448149E-02    0.197257E-01
     40.00    0.508296E-03    0.239426E-01    0.277344E-02    0.211692E-01
     20.00    0.253355E-03    0.236877E-01    0.121009E-02    0.224776E-01
     10.00    0.126676E-03    0.235610E-01    0.517189E-03    0.230438E-01 (used)
   ------------------------------------------------------------------------

         :::::::::::::::::::::::::::::::::::::::::::::::::::::
         ::                  THERMODYNAMIC                  ::
         :::::::::::::::::::::::::::::::::::::::::::::::::::::
         :: total free energy          -9.468178826373 Eh   ::
         ::.................................................::
         :: total energy               -9.491222637752 Eh   ::
         :: zero point energy           0.023434324591 Eh   ::
         :: G(RRHO) w/o ZPVE           -0.000390513211 Eh   ::
         :: G(RRHO) contrib.            0.023043811379 Eh   ::
         :::::::::::::::::::::::::::::::::::::::::::::::::::::

           -------------------------------------------------
          | TOTAL ENERGY               -9.491222637752 Eh   |
          | TOTAL ENTHALPY             -9.467661637146 Eh   |
          | TOTAL FREE ENERGY          -9.468178826373 Eh   |
          | GRADIENT NORM               0.000385326297 Eh/Î± |
          | HOMO-LUMO GAP               6.629944036650 eV   |
           -------------------------------------------------

 * finished run on 2020/05/12 at 11:45:02.928
