   * xtb version 6.2.2 (9d81278992624c895f80dd42a50cac0aa55982e2) compiled by '@Darwin' on 04/03/2020
          program call               : xtb --input C3O1_4_S_2.input C3O1_4_S_2.xyz --ohess --molden --namespace C3O1_4_S_2 output.out
          number of atoms            :                     4
          number of electrons        :                    18
          charge                     :                     0
          spin                       :                   1.0

   ID    Z sym.   atoms
    1    8 O      1
    2    6 C      2-4

          :  Hamiltonian                  GFN2-xTB          :
 * total energy  :   -10.0455372 Eh     change        0.4858336E-10 Eh
 * total energy  :   -10.1314282 Eh     change       -0.8589106E-01 Eh
 * total energy  :   -10.1453742 Eh     change       -0.1394591E-01 Eh
 * total energy  :   -10.1894488 Eh     change       -0.4407465E-01 Eh
 * total energy  :   -10.1947256 Eh     change       -0.5276768E-02 Eh
 * total energy  :   -10.1987092 Eh     change       -0.3983621E-02 Eh
 * total energy  :   -10.1998457 Eh     change       -0.1136494E-02 Eh
 * total energy  :   -10.1999313 Eh     change       -0.8566059E-04 Eh
 * total energy  :   -10.1999346 Eh     change       -0.3270491E-05 Eh
   *** GEOMETRY OPTIMIZATION CONVERGED AFTER 9 ITERATIONS ***

 final structure:
================
4
 xtb: 6.2.2 (9d81278992624c895f80dd42a50cac0aa55982e2)
O         1.52797445985421   -0.03780636242703    0.01706945627735
C         0.35274779830839   -0.00872409474199    0.00369530884769
C        -0.95672807165323   -0.64041847920272   -0.01499206971511
C        -0.92399418650938    0.68694893637174   -0.00577269540993

          :  Hamiltonian                  GFN2-xTB          :
         :: gradient norm              0.000372366825 Eh/a0 ::
         :: HOMO-LUMO gap              2.893502734294 eV    ::
         :: SCC energy               -10.342032186309 Eh    ::
         :: -> dispersion             -0.001620118921 Eh    ::
         :: repulsion energy           0.142097561015 Eh    ::

    * Orbital Energies and Occupations

         #    Occupation            Energy/Eh            Energy/eV
      -------------------------------------------------------------
         1        2.0000           -0.7837711             -21.3275
         2        2.0000           -0.7336395             -19.9633
         3        2.0000           -0.6319602             -17.1965
         4        2.0000           -0.6286102             -17.1054
         5        2.0000           -0.6133880             -16.6911
         6        2.0000           -0.5468742             -14.8812
         7        2.0000           -0.5282215             -14.3736
         8        2.0000           -0.4946821             -13.4610
         9        1.0000           -0.4248997             -11.5621
        10        1.0000           -0.3906276             -10.6295 (HOMO)
        11                         -0.2842935              -7.7360 (LUMO)
        12                         -0.2622290              -7.1356
        13                         -0.0224173              -0.6100
        14                          0.0759001               2.0653
        15                          0.4879924              13.2789
        16                          0.8185799              22.2747
      -------------------------------------------------------------
                  HL-Gap            0.1063342 Eh            2.8935 eV

     #   Z        covCN         q      C6AA      Î±(0)
     1   8 O      0.856    -0.232    18.605     5.783
     2   6 C      2.814     0.309    21.760     7.643
     3   6 C      1.960    -0.038    32.095     9.149
     4   6 C      1.960    -0.038    32.095     9.149

Wiberg/Mayer (AO) data.
largest (>0.10) Wiberg bond orders for each atom
          total WBO             WBO to atom ...

molecular dipole:
                 x           y           z       tot (Debye)
 q only:       -0.330       0.008      -0.004
   full:       -0.191       0.005      -0.002       0.487

 projected vibrational frequencies (cm-1)
eigval :       -0.00    -0.00    -0.00     0.00     0.00     0.00
eigval :      427.19   496.15   837.21   921.66  1640.33  2071.58

   temp. (K)  partition function   enthalpy   heat capacity  entropy
                                   cal/mol     cal/K/mol   cal/K/mol   J/K/mol
  10.00  VIB   1.00                    0.000      0.000     -0.001
         ROT   49.2                   29.809      2.981     10.725
         INT   49.2                   29.809      2.981     10.724
         TR   0.223E+25               49.681      4.968     20.895
         TOT                          79.4904     7.9490    31.6187   132.2927

       T/K    H(0)-H(T)+PV         H(T)/Eh          T*S/Eh         G(T)/Eh
   ------------------------------------------------------------------------
    298.15    0.440889E-02    0.189757E-01    0.287212E-01   -0.974541E-02
    120.00    0.153794E-02    0.161048E-01    0.984396E-02    0.626084E-02
    100.00    0.127276E-02    0.158396E-01    0.796174E-02    0.787788E-02
     80.00    0.101461E-02    0.155815E-01    0.613912E-02    0.944235E-02
     60.00    0.760141E-03    0.153270E-01    0.438483E-02    0.109422E-01
     40.00    0.506705E-03    0.150736E-01    0.271776E-02    0.123558E-01
     20.00    0.253352E-03    0.148202E-01    0.118332E-02    0.136369E-01
     10.00    0.126676E-03    0.146935E-01    0.503876E-03    0.141897E-01 (used)
   ------------------------------------------------------------------------

         :::::::::::::::::::::::::::::::::::::::::::::::::::::
         ::                  THERMODYNAMIC                  ::
         :::::::::::::::::::::::::::::::::::::::::::::::::::::
         :: total free energy         -10.185744959020 Eh   ::
         ::.................................................::
         :: total energy              -10.199934618477 Eh   ::
         :: zero point energy           0.014566859713 Eh   ::
         :: G(RRHO) w/o ZPVE           -0.000377200256 Eh   ::
         :: G(RRHO) contrib.            0.014189659457 Eh   ::
         :::::::::::::::::::::::::::::::::::::::::::::::::::::

           -------------------------------------------------
          | TOTAL ENERGY              -10.199934618477 Eh   |
          | TOTAL ENTHALPY            -10.185241082749 Eh   |
          | TOTAL FREE ENERGY         -10.185744959020 Eh   |
          | GRADIENT NORM               0.000372020220 Eh/Î± |
          | HOMO-LUMO GAP               2.893499753505 eV   |
           -------------------------------------------------

 * finished run on 2020/05/12 at 11:45:19.086
