   * xtb version 6.2.2 (9d81278992624c895f80dd42a50cac0aa55982e2) compiled by '@Darwin' on 04/03/2020
          program call               : xtb --input H1O2_0_S_1.input H1O2_0_S_1.xyz --ohess --molden --namespace H1O2_0_S_1 output.out
          number of atoms            :                     3
          number of electrons        :                    13
          charge                     :                     0
          spin                       :                   0.5

   ID    Z sym.   atoms
    1    8 O      1, 2
    2    1 H      3

          :  Hamiltonian                  GFN2-xTB          :
 * total energy  :    -8.4590502 Eh     change       -0.4685496E-10 Eh
 * total energy  :    -8.4594937 Eh     change       -0.4434676E-03 Eh
 * total energy  :    -8.4596272 Eh     change       -0.1334658E-03 Eh
 * total energy  :    -8.4596282 Eh     change       -0.1079542E-05 Eh
   *** GEOMETRY OPTIMIZATION CONVERGED AFTER 4 ITERATIONS ***

 final structure:
================
3
 xtb: 6.2.2 (9d81278992624c895f80dd42a50cac0aa55982e2)
O        -0.15464138451728    0.42646075820510   -0.00000000000000
O         1.00789111325406   -0.16037236461989    0.00000000000000
H        -0.85325072873678   -0.26608739358521    0.00000000000000

          :  Hamiltonian                  GFN2-xTB          :
         :: gradient norm              0.000140684843 Eh/a0 ::
         :: HOMO-LUMO gap             10.534437504403 eV    ::
         :: SCC energy                -8.476186639042 Eh    ::
         :: -> dispersion             -0.000316933938 Eh    ::
         :: repulsion energy           0.016558392827 Eh    ::

    * Orbital Energies and Occupations

         #    Occupation            Energy/Eh            Energy/eV
      -------------------------------------------------------------
         1        2.0000           -0.7786452             -21.1880
         2        2.0000           -0.7190385             -19.5660
         3        2.0000           -0.6553183             -17.8321
         4        2.0000           -0.6047625             -16.4564
         5        2.0000           -0.6041431             -16.4396
         6        2.0000           -0.4617810             -12.5657
         7        1.0000           -0.4278844             -11.6433 (HOMO)
         8                         -0.0407509              -1.1089 (LUMO)
         9                          0.0804856               2.1901
      -------------------------------------------------------------
                  HL-Gap            0.3871334 Eh           10.5344 eV

     #   Z        covCN         q      C6AA      Î±(0)
     1   8 O      1.775    -0.121    16.127     5.423
     2   8 O      0.972    -0.216    18.282     5.735
     3   1 H      0.802     0.337     0.620     1.237

Wiberg/Mayer (AO) data.
largest (>0.10) Wiberg bond orders for each atom
          total WBO             WBO to atom ...

molecular dipole:
                 x           y           z       tot (Debye)
 q only:       -0.919      -0.202       0.000
   full:       -1.125      -0.339       0.000       2.987

 projected vibrational frequencies (cm-1)
eigval :       -0.00    -0.00    -0.00    -0.00     0.00     0.00
eigval :     1280.94  1325.70  3224.03

   temp. (K)  partition function   enthalpy   heat capacity  entropy
                                   cal/mol     cal/K/mol   cal/K/mol   J/K/mol
  10.00  VIB   1.00                    0.000      0.000     -0.000
         ROT   6.24                   29.809      2.981      6.620
         INT   6.24                   29.809      2.981      6.619
         TR   0.113E+25               49.681      4.968     19.539
         TOT                          79.4904     7.9490    26.1582   109.4459

       T/K    H(0)-H(T)+PV         H(T)/Eh          T*S/Eh         G(T)/Eh
   ------------------------------------------------------------------------
    298.15    0.379902E-02    0.170823E-01    0.252728E-01   -0.819057E-02
    120.00    0.152011E-02    0.148034E-01    0.877848E-02    0.602488E-02
    100.00    0.126676E-02    0.145500E-01    0.708451E-02    0.746550E-02
     80.00    0.101341E-02    0.142967E-01    0.544154E-02    0.885511E-02
     60.00    0.760056E-03    0.140433E-01    0.386257E-02    0.101807E-01
     40.00    0.506704E-03    0.137899E-01    0.236966E-02    0.114203E-01
     20.00    0.253352E-03    0.135366E-01    0.100927E-02    0.125273E-01
     10.00    0.126676E-03    0.134099E-01    0.416858E-03    0.129931E-01 (used)
   ------------------------------------------------------------------------

         :::::::::::::::::::::::::::::::::::::::::::::::::::::
         ::                  THERMODYNAMIC                  ::
         :::::::::::::::::::::::::::::::::::::::::::::::::::::
         :: total free energy          -8.446635182345 Eh   ::
         ::.................................................::
         :: total energy               -8.459628246099 Eh   ::
         :: zero point energy           0.013283245334 Eh   ::
         :: G(RRHO) w/o ZPVE           -0.000290181579 Eh   ::
         :: G(RRHO) contrib.            0.012993063754 Eh   ::
         :::::::::::::::::::::::::::::::::::::::::::::::::::::

           -------------------------------------------------
          | TOTAL ENERGY               -8.459628246099 Eh   |
          | TOTAL ENTHALPY             -8.446218324750 Eh   |
          | TOTAL FREE ENERGY          -8.446635182345 Eh   |
          | GRADIENT NORM               0.000140696108 Eh/Î± |
          | HOMO-LUMO GAP              10.534437160361 eV   |
           -------------------------------------------------

 * finished run on 2020/05/12 at 11:45:16.133
