   * xtb version 6.2.2 (9d81278992624c895f80dd42a50cac0aa55982e2) compiled by '@Darwin' on 04/03/2020
          program call               : xtb --input H1C3N1_20_S_0.input H1C3N1_20_S_0.xyz --ohess --molden --namespace H1C3N1_20_S_0 output.out
          number of atoms            :                     5
          number of electrons        :                    18
          charge                     :                     0
          spin                       :                   0.0

   ID    Z sym.   atoms
    1    7 N      1
    2    6 C      2-4
    3    1 H      5

          :  Hamiltonian                  GFN2-xTB          :
 * total energy  :    -9.4390816 Eh     change       -0.4656719E-09 Eh
 * total energy  :    -9.5177642 Eh     change       -0.7868256E-01 Eh
 * total energy  :    -9.5396333 Eh     change       -0.2186914E-01 Eh
 * total energy  :    -9.5792112 Eh     change       -0.3957784E-01 Eh
 * total energy  :    -9.5881530 Eh     change       -0.8941898E-02 Eh
 * total energy  :    -9.6037284 Eh     change       -0.1557536E-01 Eh
 * total energy  :    -9.6173827 Eh     change       -0.1365430E-01 Eh
 * total energy  :    -9.6263459 Eh     change       -0.8963217E-02 Eh
 * total energy  :    -9.6324706 Eh     change       -0.6124692E-02 Eh
 * total energy  :    -9.6353363 Eh     change       -0.2865657E-02 Eh
 * total energy  :    -9.6540018 Eh     change       -0.1763378E-03 Eh
 * total energy  :    -9.6540974 Eh     change       -0.9553538E-04 Eh
 * total energy  :    -9.6543278 Eh     change       -0.2304619E-03 Eh
 * total energy  :    -9.6544055 Eh     change       -0.7766270E-04 Eh
 * total energy  :    -9.6544240 Eh     change       -0.1846702E-04 Eh
 * total energy  :    -9.6544316 Eh     change       -0.7639296E-05 Eh
 * total energy  :    -9.6544361 Eh     change       -0.4465759E-05 Eh
 * total energy  :    -9.6544426 Eh     change       -0.6568255E-05 Eh
 * total energy  :    -9.6544443 Eh     change       -0.1661842E-05 Eh
   *** GEOMETRY OPTIMIZATION CONVERGED AFTER 31 ITERATIONS ***

 final structure:
================
5
 xtb: 6.2.2 (9d81278992624c895f80dd42a50cac0aa55982e2)
N         1.29941941537985   -0.12960113183898    0.13200140833920
C         0.12560495069921   -0.00854490304379    0.01271051326047
C        -1.17456036111167   -0.02169087554738    0.04406054318212
C        -2.43394729243514    0.00044963717722    0.02780258995288
H         2.18348328746773    0.15938727325294   -0.21657605473466

          :  Hamiltonian                  GFN2-xTB          :
         :: gradient norm              0.000383601874 Eh/a0 ::
         :: HOMO-LUMO gap              2.596296600660 eV    ::
         :: SCC energy                -9.889038854965 Eh    ::
         :: -> dispersion             -0.002046849036 Eh    ::
         :: repulsion energy           0.234595008644 Eh    ::

    * Orbital Energies and Occupations

         #    Occupation            Energy/Eh            Energy/eV
      -------------------------------------------------------------
         1        2.0000           -0.6889025             -18.7460
         2        2.0000           -0.6381413             -17.3647
         3        2.0000           -0.6058407             -16.4858
         4        2.0000           -0.5716623             -15.5557
         5        2.0000           -0.5379342             -14.6379
         6        2.0000           -0.5331908             -14.5089
         7        2.0000           -0.4230492             -11.5118
         8        2.0000           -0.4192177             -11.4075
         9        2.0000           -0.3945966             -10.7375 (HOMO)
        10                         -0.2991844              -8.1412 (LUMO)
        11                         -0.2864512              -7.7947
        12                         -0.1066620              -2.9024
        13                         -0.0950443              -2.5863
        14                          0.0277145               0.7542
        15                          0.2915412               7.9332
        16                          0.8414421              22.8968
        17                          1.3926283              37.8953
      -------------------------------------------------------------
                  HL-Gap            0.0954122 Eh            2.5963 eV

     #   Z        covCN         q      C6AA      Î±(0)
     1   7 N      1.773    -0.170    25.450     7.470
     2   6 C      1.893     0.157    27.324     8.442
     3   6 C      1.963    -0.032    31.928     9.125
     4   6 C      0.982    -0.171    41.578    10.831
     5   1 H      0.861     0.216     1.027     1.587

Wiberg/Mayer (AO) data.
largest (>0.10) Wiberg bond orders for each atom
          total WBO             WBO to atom ...

molecular dipole:
                 x           y           z       tot (Debye)
 q only:        1.370       0.105      -0.139
   full:        2.020       0.200      -0.254       5.200

 projected vibrational frequencies (cm-1)
eigval :       -0.00    -0.00    -0.00     0.00     0.00     0.00
eigval :      168.37   182.24   495.09   527.12   546.35  1002.92
eigval :     1968.55  2270.34  3615.26

   temp. (K)  partition function   enthalpy   heat capacity  entropy
                                   cal/mol     cal/K/mol   cal/K/mol   J/K/mol
  10.00  VIB   1.00                    0.000      0.000     -0.015
         ROT   27.2                   29.809      2.981      9.546
         INT   27.2                   29.809      2.981      9.531
         TR   0.217E+25               49.681      4.968     20.838
         TOT                          79.4904     7.9490    30.3688   127.0631

       T/K    H(0)-H(T)+PV         H(T)/Eh          T*S/Eh         G(T)/Eh
   ------------------------------------------------------------------------
    298.15    0.563985E-02    0.301899E-01    0.304232E-01   -0.233284E-03
    120.00    0.175675E-02    0.263068E-01    0.992631E-02    0.163805E-01
    100.00    0.141050E-02    0.259606E-01    0.795675E-02    0.180038E-01
     80.00    0.108561E-02    0.256357E-01    0.607587E-02    0.195598E-01
     60.00    0.784502E-03    0.253346E-01    0.429753E-02    0.210371E-01
     40.00    0.509689E-03    0.250598E-01    0.264269E-02    0.224171E-01
     20.00    0.253358E-03    0.248034E-01    0.114378E-02    0.236597E-01
     10.00    0.126676E-03    0.246768E-01    0.483958E-03    0.241928E-01 (used)
   ------------------------------------------------------------------------

         :::::::::::::::::::::::::::::::::::::::::::::::::::::
         ::                  THERMODYNAMIC                  ::
         :::::::::::::::::::::::::::::::::::::::::::::::::::::
         :: total free energy          -9.630251497708 Eh   ::
         ::.................................................::
         :: total energy               -9.654444293811 Eh   ::
         :: zero point energy           0.024550077813 Eh   ::
         :: G(RRHO) w/o ZPVE           -0.000357281710 Eh   ::
         :: G(RRHO) contrib.            0.024192796103 Eh   ::
         :::::::::::::::::::::::::::::::::::::::::::::::::::::

           -------------------------------------------------
          | TOTAL ENERGY               -9.654444293811 Eh   |
          | TOTAL ENTHALPY             -9.629767539982 Eh   |
          | TOTAL FREE ENERGY          -9.630251497708 Eh   |
          | GRADIENT NORM               0.000383503853 Eh/Î± |
          | HOMO-LUMO GAP               2.596297125452 eV   |
           -------------------------------------------------

 * finished run on 2020/05/12 at 11:44:58.327
