   * xtb version 6.2.2 (9d81278992624c895f80dd42a50cac0aa55982e2) compiled by '@Darwin' on 04/03/2020
          program call               : xtb --input H3C1O1_0_S_3.input H3C1O1_0_S_3.xyz --ohess --molden --namespace H3C1O1_0_S_3 output.out
          number of atoms            :                     5
          number of electrons        :                    13
          charge                     :                     0
          spin                       :                   1.5

   ID    Z sym.   atoms
    1    8 O      1
    2    6 C      2
    3    1 H      3-5

          :  Hamiltonian                  GFN2-xTB          :
 * total energy  :    -7.1314803 Eh     change        0.6235288E-09 Eh
 * total energy  :    -7.2902014 Eh     change       -0.1587212E+00 Eh
 * total energy  :    -7.3513400 Eh     change       -0.6113856E-01 Eh
 * total energy  :    -7.4161174 Eh     change       -0.6477745E-01 Eh
 * total energy  :    -7.4279617 Eh     change       -0.1184422E-01 Eh
 * total energy  :    -7.4337529 Eh     change       -0.5791258E-02 Eh
 * total energy  :    -7.4341854 Eh     change       -0.4324810E-03 Eh
 * total energy  :    -7.4345468 Eh     change       -0.3613575E-03 Eh
 * total energy  :    -7.4350449 Eh     change       -0.4981497E-03 Eh
 * total energy  :    -7.4357770 Eh     change       -0.7321056E-03 Eh
 * total energy  :    -7.4364414 Eh     change       -0.6643411E-03 Eh
 * total energy  :    -7.4367037 Eh     change       -0.2623400E-03 Eh
 * total energy  :    -7.4367658 Eh     change       -0.6208301E-04 Eh
 * total energy  :    -7.4368053 Eh     change       -0.3949818E-04 Eh
 * total energy  :    -7.4368352 Eh     change       -0.2993967E-04 Eh
 * total energy  :    -7.4368448 Eh     change       -0.9538866E-05 Eh
 * total energy  :    -7.4368451 Eh     change       -0.3378443E-06 Eh
   *** GEOMETRY OPTIMIZATION CONVERGED AFTER 17 ITERATIONS ***

 final structure:
================
5
 xtb: 6.2.2 (9d81278992624c895f80dd42a50cac0aa55982e2)
O         0.30874378152339   -0.45310030754799    0.93312610412534
C        -0.79193299363044   -0.05937500435541    0.42599810764046
H         2.51013458517845    0.08238810767185   -1.10604516486121
H        -1.14086127088833   -0.59076527890099   -0.47566820577875
H        -0.88608310218307    1.02085148313254    0.22258915887416

          :  Hamiltonian                  GFN2-xTB          :
         :: gradient norm              0.000209857578 Eh/a0 ::
         :: HOMO-LUMO gap             11.970252638659 eV    ::
         :: SCC energy                -7.489065833322 Eh    ::
         :: -> dispersion             -0.000925195639 Eh    ::
         :: repulsion energy           0.052220496678 Eh    ::

    * Orbital Energies and Occupations

         #    Occupation            Energy/Eh            Energy/eV
      -------------------------------------------------------------
         1        2.0000           -0.7093604             -19.3027
         2        2.0000           -0.6152645             -16.7422
Molecule has the following symmetry elements: (sigma)
It seems to be the Cs point group
         3        2.0000           -0.5527550             -15.0412
         4        2.0000           -0.5401376             -14.6979
         5        2.0000           -0.5121475             -13.9362
         6        1.0000           -0.4182066             -11.3800
         7        1.0000           -0.3865321             -10.5181
         8        1.0000           -0.3033930              -8.2557 (HOMO)
         9                          0.1365057               3.7145 (LUMO)
        10                          0.1850253               5.0348
        11                          0.3542235               9.6389
      -------------------------------------------------------------
                  HL-Gap            0.4398987 Eh           11.9703 eV

     #   Z        covCN         q      C6AA      Î±(0)
     1   8 O      0.855    -0.261    19.089     5.858
     2   6 C      2.701     0.011    27.752     8.622
     3   1 H      0.000    -0.001     7.658     5.060
     4   1 H      0.923     0.125     1.570     1.960
     5   1 H      0.923     0.125     1.570     1.960

Wiberg/Mayer (AO) data.
largest (>0.10) Wiberg bond orders for each atom
          total WBO             WBO to atom ...

molecular dipole:
                 x           y           z       tot (Debye)
 q only:       -0.653       0.324      -0.509
   full:       -0.664       0.425      -0.739       2.746

 projected vibrational frequencies (cm-1)
eigval :       -0.00    -0.00    -0.00     0.00     0.00     0.00
eigval :      -23.00   -15.50    83.21   743.53   813.56  1197.59
eigval :     1507.42  2699.28  2752.46

   temp. (K)  partition function   enthalpy   heat capacity  entropy
                                   cal/mol     cal/K/mol   cal/K/mol   J/K/mol
  10.00  VIB   1.12                    5.340      1.336      1.230
         ROT   30.2                   29.809      2.981      9.753
         INT   33.8                   35.149      4.317     10.983
         TR   0.103E+25               49.681      4.968     19.355
         TOT                          84.8302     9.2848    30.3378   126.9332

       T/K    H(0)-H(T)+PV         H(T)/Eh          T*S/Eh         G(T)/Eh
   ------------------------------------------------------------------------
    298.15    0.564613E-02    0.280008E-01    0.308783E-01   -0.287749E-02
    120.00    0.208805E-02    0.244427E-01    0.104594E-01    0.139833E-01
    100.00    0.171362E-02    0.240683E-01    0.840601E-02    0.156622E-01
     80.00    0.134247E-02    0.236971E-01    0.642374E-02    0.172734E-01
     60.00    0.976596E-03    0.233312E-01    0.453064E-02    0.188006E-01
     40.00    0.621339E-03    0.229760E-01    0.275807E-02    0.202179E-01
     20.00    0.288761E-03    0.226434E-01    0.116807E-02    0.214753E-01
     10.00    0.135186E-03    0.224898E-01    0.483463E-03    0.220064E-01 (used)
   ------------------------------------------------------------------------

         :::::::::::::::::::::::::::::::::::::::::::::::::::::
         ::                  THERMODYNAMIC                  ::
         :::::::::::::::::::::::::::::::::::::::::::::::::::::
         :: total free energy          -7.414838728924 Eh   ::
         ::.................................................::
         :: total energy               -7.436845092756 Eh   ::
         :: zero point energy           0.022354641436 Eh   ::
         :: G(RRHO) w/o ZPVE           -0.000348277603 Eh   ::
         :: G(RRHO) contrib.            0.022006363833 Eh   ::
         :::::::::::::::::::::::::::::::::::::::::::::::::::::

           -------------------------------------------------
          | TOTAL ENERGY               -7.436845092756 Eh   |
          | TOTAL ENTHALPY             -7.414355265788 Eh   |
          | TOTAL FREE ENERGY          -7.414838728924 Eh   |
          | GRADIENT NORM               0.000209857800 Eh/Î± |
          | HOMO-LUMO GAP              11.970252652862 eV   |
           -------------------------------------------------

 * finished run on 2020/05/12 at 11:44:44.604
