   * xtb version 6.2.2 (9d81278992624c895f80dd42a50cac0aa55982e2) compiled by '@Darwin' on 04/03/2020
          program call               : xtb --input C4N1_3_S_3.input C4N1_3_S_3.xyz --ohess --molden --namespace C4N1_3_S_3 output.out
          number of atoms            :                     5
          number of electrons        :                    21
          charge                     :                     0
          spin                       :                   1.5

   ID    Z sym.   atoms
    1    6 C      1, 3-5
    2    7 N      2

          :  Hamiltonian                  GFN2-xTB          :
 * total energy  :   -10.7974514 Eh     change       -0.1201677E-08 Eh
 * total energy  :   -10.8885127 Eh     change       -0.9106129E-01 Eh
 * total energy  :   -10.8740795 Eh     change        0.1443319E-01 Eh
 * total energy  :   -10.9257993 Eh     change       -0.5171976E-01 Eh
 * total energy  :   -10.9330836 Eh     change       -0.7284256E-02 Eh
 * total energy  :   -10.9396157 Eh     change       -0.6532087E-02 Eh
 * total energy  :   -10.9443512 Eh     change       -0.4735586E-02 Eh
 * total energy  :   -10.9469497 Eh     change       -0.2598419E-02 Eh
 * total energy  :   -10.9489537 Eh     change       -0.2004056E-02 Eh
 * total energy  :   -10.9544104 Eh     change       -0.5456675E-02 Eh
 * total energy  :   -11.0118052 Eh     change       -0.3955099E-03 Eh
 * total energy  :   -11.0118623 Eh     change       -0.5710761E-04 Eh
 * total energy  :   -11.0119072 Eh     change       -0.4496019E-04 Eh
 * total energy  :   -11.0119374 Eh     change       -0.3019058E-04 Eh
 * total energy  :   -11.0119517 Eh     change       -0.1422850E-04 Eh
 * total energy  :   -11.0119599 Eh     change       -0.8236048E-05 Eh
 * total energy  :   -11.0119716 Eh     change       -0.1165701E-04 Eh
 * total energy  :   -11.0119770 Eh     change       -0.5478693E-05 Eh
 * total energy  :   -11.0119814 Eh     change       -0.4418692E-05 Eh
   *** GEOMETRY OPTIMIZATION CONVERGED AFTER 36 ITERATIONS ***

 final structure:
================
5
 xtb: 6.2.2 (9d81278992624c895f80dd42a50cac0aa55982e2)
C        -1.57305244796507   -0.54410537845335    0.00610198914124
N        -0.23594796631892   -0.08021374098891   -0.16895956029358
C         1.00830850738126   -0.22470744507266   -0.04023084005652
C        -1.42082884767157    0.74787500513345    0.15098738043391
C         2.22152075457431    0.10115255938146    0.05210103077495

          :  Hamiltonian                  GFN2-xTB          :
         :: gradient norm              0.000533406215 Eh/a0 ::
         :: HOMO-LUMO gap              2.762304763546 eV    ::
         :: SCC energy               -11.213628990750 Eh    ::
         :: -> dispersion             -0.002856161873 Eh    ::
         :: repulsion energy           0.201647636820 Eh    ::

    * Orbital Energies and Occupations

         #    Occupation            Energy/Eh            Energy/eV
      -------------------------------------------------------------
         1        2.0000           -0.7419047             -20.1883
         2        2.0000           -0.6963384             -18.9483
         3        2.0000           -0.6470574             -17.6073
         4        2.0000           -0.6104082             -16.6101
         5        2.0000           -0.5860629             -15.9476
         6        2.0000           -0.5690637             -15.4850
         7        2.0000           -0.4983372             -13.5604
         8        2.0000           -0.4741855             -12.9032
         9        2.0000           -0.4450105             -12.1094
        10        1.0000           -0.4235517             -11.5254
        11        1.0000           -0.4173275             -11.3561
        12        1.0000           -0.3797213             -10.3327 (HOMO)
        13                         -0.2782081              -7.5704 (LUMO)
        14                         -0.2446898              -6.6583
        15                         -0.1828008              -4.9743
        16                         -0.0668474              -1.8190
        17                         -0.0655612              -1.7840
        18                          0.3857620              10.4971
        19                          0.5412381              14.7278
        20                          1.0296055              28.0170
      -------------------------------------------------------------
                  HL-Gap            0.1015133 Eh            2.7623 eV

     #   Z        covCN         q      C6AA      Î±(0)
     1   6 C      1.890     0.002    31.057     9.001
     2   7 N      2.726     0.070    20.029     6.647
Molecule has no symmetry elements
It seems to be the C1 point group
     3   6 C      1.892     0.077    29.180     8.724
     4   6 C      1.887    -0.018    31.612     9.081
     5   6 C      0.983    -0.131    40.159    10.645

Wiberg/Mayer (AO) data.
largest (>0.10) Wiberg bond orders for each atom
          total WBO             WBO to atom ...

molecular dipole:
                 x           y           z       tot (Debye)
 q only:       -0.391      -0.097      -0.046
   full:       -0.400      -0.301      -0.090       1.294

 projected vibrational frequencies (cm-1)
eigval :       -0.00    -0.00     0.00     0.00     0.00     0.00
eigval :      130.79   187.24   325.90   350.70   464.74   769.51
eigval :     1366.78  1617.82  1818.58

   temp. (K)  partition function   enthalpy   heat capacity  entropy
                                   cal/mol     cal/K/mol   cal/K/mol   J/K/mol
  10.00  VIB   1.00                    0.000      0.000     -0.024
         ROT   212.                   29.809      2.981     13.630
         INT   212.                   29.809      2.981     13.606
         TR   0.290E+25               49.681      4.968     21.419
         TOT                          79.4904     7.9490    35.0257   146.5474

       T/K    H(0)-H(T)+PV         H(T)/Eh          T*S/Eh         G(T)/Eh
   ------------------------------------------------------------------------
    298.15    0.613653E-02    0.221567E-01    0.335783E-01   -0.114216E-01
    120.00    0.184119E-02    0.178614E-01    0.109485E-01    0.691293E-02
    100.00    0.146254E-02    0.174828E-01    0.877939E-02    0.870337E-02
     80.00    0.111420E-02    0.171344E-01    0.671339E-02    0.104210E-01
     60.00    0.797788E-03    0.168180E-01    0.476269E-02    0.120553E-01
     40.00    0.513182E-03    0.165334E-01    0.294492E-02    0.135885E-01
     20.00    0.253402E-03    0.162736E-01    0.129255E-02    0.149811E-01
     10.00    0.126676E-03    0.161469E-01    0.558170E-03    0.155887E-01 (used)
   ------------------------------------------------------------------------

         :::::::::::::::::::::::::::::::::::::::::::::::::::::
         ::                  THERMODYNAMIC                  ::
         :::::::::::::::::::::::::::::::::::::::::::::::::::::
         :: total free energy         -10.996392728214 Eh   ::
         ::.................................................::
         :: total energy              -11.011981447572 Eh   ::
         :: zero point energy           0.016020213087 Eh   ::
         :: G(RRHO) w/o ZPVE           -0.000431493729 Eh   ::
         :: G(RRHO) contrib.            0.015588719358 Eh   ::
         :::::::::::::::::::::::::::::::::::::::::::::::::::::

           -------------------------------------------------
          | TOTAL ENERGY              -11.011981447572 Eh   |
          | TOTAL ENTHALPY            -10.995834558466 Eh   |
          | TOTAL FREE ENERGY         -10.996392728214 Eh   |
          | GRADIENT NORM               0.000534025384 Eh/Î± |
          | HOMO-LUMO GAP               2.762317247449 eV   |
           -------------------------------------------------

 * finished run on 2020/05/12 at 11:43:58.595
