   * xtb version 6.2.2 (9d81278992624c895f80dd42a50cac0aa55982e2) compiled by '@Darwin' on 04/03/2020
          program call               : xtb --input C4N1_24_S_3.input C4N1_24_S_3.xyz --ohess --molden --namespace C4N1_24_S_3 output.out
          number of atoms            :                     5
          number of electrons        :                    21
          charge                     :                     0
          spin                       :                   1.5

   ID    Z sym.   atoms
    1    7 N      1
    2    6 C      2-5

          :  Hamiltonian                  GFN2-xTB          :
 * total energy  :   -10.8960663 Eh     change       -0.5138379E-09 Eh
 * total energy  :   -10.9347058 Eh     change       -0.3863954E-01 Eh
 * total energy  :   -10.9710463 Eh     change       -0.3634046E-01 Eh
 * total energy  :   -11.0010871 Eh     change       -0.3004084E-01 Eh
 * total energy  :   -11.0180682 Eh     change       -0.1698110E-01 Eh
 * total energy  :   -11.0226559 Eh     change       -0.4587726E-02 Eh
 * total energy  :   -11.0246578 Eh     change       -0.2001923E-02 Eh
 * total energy  :   -11.0254350 Eh     change       -0.7771848E-03 Eh
 * total energy  :   -11.0256947 Eh     change       -0.2597131E-03 Eh
 * total energy  :   -11.0258751 Eh     change       -0.1803666E-03 Eh
 * total energy  :   -11.0260364 Eh     change       -0.1613082E-03 Eh
 * total energy  :   -11.0260788 Eh     change       -0.4236693E-04 Eh
 * total energy  :   -11.0260831 Eh     change       -0.4267021E-05 Eh
   *** GEOMETRY OPTIMIZATION CONVERGED AFTER 13 ITERATIONS ***

 final structure:
================
5
 xtb: 6.2.2 (9d81278992624c895f80dd42a50cac0aa55982e2)
N         1.68419244033603   -0.73827772989851   -0.10915874559014
C         0.58211206995600   -0.25577905011663   -0.11535360150945
C        -1.29449576453413    0.57000742822977    0.41040078056739
C        -0.11516808068152    1.05875024060395   -0.09957076106505
C        -0.85664166507637   -0.63470088881858   -0.08631767240275

          :  Hamiltonian                  GFN2-xTB          :
         :: gradient norm              0.000912099212 Eh/a0 ::
         :: HOMO-LUMO gap              1.744815674316 eV    ::
         :: SCC energy               -11.205412841801 Eh    ::
         :: -> dispersion             -0.002755599341 Eh    ::
         :: repulsion energy           0.179329765396 Eh    ::

    * Orbital Energies and Occupations

         #    Occupation            Energy/Eh            Energy/eV
      -------------------------------------------------------------
         1        2.0000           -0.7383181             -20.0907
         2        2.0000           -0.7003628             -19.0578
         3        2.0000           -0.6305277             -17.1575
         4        2.0000           -0.6203752             -16.8813
         5        2.0000           -0.5675293             -15.4433
         6        2.0000           -0.5668948             -15.4260
         7        2.0000           -0.5040358             -13.7155
         8        2.0000           -0.4914658             -13.3735
         9        2.0000           -0.4683497             -12.7444
        10        1.0000           -0.4484442             -12.2028
        11        1.0000           -0.4260458             -11.5933
        12        1.0000           -0.3835566             -10.4371 (HOMO)
        13                         -0.3194359              -8.6923 (LUMO)
        14                         -0.3109088              -8.4603
        15                         -0.1991970              -5.4204
        16                          0.0709836               1.9316
        17                          0.1015216               2.7625
        18                          0.1987628               5.4086
        19                          0.4230079              11.5106
        20                          0.8228397              22.3906
      -------------------------------------------------------------
                  HL-Gap            0.0641207 Eh            1.7448 eV

     #   Z        covCN         q      C6AA      Î±(0)
     1   7 N      0.912    -0.153    24.308     7.130
     2   6 C      3.129     0.198    23.618     7.957
     3   6 C      2.224     0.043    29.226     8.753
     4   6 C      2.732    -0.044    29.075     8.828
     5   6 C      2.732    -0.044    29.075     8.828

Wiberg/Mayer (AO) data.
largest (>0.10) Wiberg bond orders for each atom
          total WBO             WBO to atom ...

molecular dipole:
                 x           y           z       tot (Debye)
 q only:       -0.293       0.129       0.037
   full:       -0.452       0.198       0.032       1.258

 projected vibrational frequencies (cm-1)
eigval :       -0.00    -0.00    -0.00     0.00     0.00     0.00
eigval :      244.89   369.30   505.83   512.70   628.06   834.83
eigval :      960.00  1469.72  1855.76

   temp. (K)  partition function   enthalpy   heat capacity  entropy
                                   cal/mol     cal/K/mol   cal/K/mol   J/K/mol
  10.00  VIB   1.00                    0.000      0.000     -0.004
         ROT   208.                   29.809      2.981     13.585
         INT   208.                   29.809      2.981     13.581
         TR   0.290E+25               49.681      4.968     21.419
         TOT                          79.4904     7.9490    35.0005   146.4419

       T/K    H(0)-H(T)+PV         H(T)/Eh          T*S/Eh         G(T)/Eh
   ------------------------------------------------------------------------
    298.15    0.530945E-02    0.221248E-01    0.317458E-01   -0.962096E-02
    120.00    0.161510E-02    0.184305E-01    0.105925E-01    0.783795E-02
    100.00    0.131243E-02    0.181278E-01    0.855155E-02    0.957626E-02
     80.00    0.102994E-02    0.178453E-01    0.658944E-02    0.112559E-01
     60.00    0.763471E-03    0.175789E-01    0.471240E-02    0.128665E-01
     40.00    0.506874E-03    0.173223E-01    0.293369E-02    0.143886E-01
     20.00    0.253352E-03    0.170687E-01    0.129114E-02    0.157776E-01
     10.00    0.126676E-03    0.169421E-01    0.557768E-03    0.163843E-01 (used)
   ------------------------------------------------------------------------

         :::::::::::::::::::::::::::::::::::::::::::::::::::::
         ::                  THERMODYNAMIC                  ::
         :::::::::::::::::::::::::::::::::::::::::::::::::::::
         :: total free energy         -11.009698763591 Eh   ::
         ::.................................................::
         :: total energy              -11.026083053150 Eh   ::
         :: zero point energy           0.016815381396 Eh   ::
         :: G(RRHO) w/o ZPVE           -0.000431091837 Eh   ::
         :: G(RRHO) contrib.            0.016384289559 Eh   ::
         :::::::::::::::::::::::::::::::::::::::::::::::::::::

           -------------------------------------------------
          | TOTAL ENERGY              -11.026083053150 Eh   |
          | TOTAL ENTHALPY            -11.009140995738 Eh   |
          | TOTAL FREE ENERGY         -11.009698763591 Eh   |
          | GRADIENT NORM               0.000912105306 Eh/Î± |
          | HOMO-LUMO GAP               1.744813427748 eV   |
           -------------------------------------------------

 * finished run on 2020/05/12 at 11:44:08.824
