   * xtb version 6.2.2 (9d81278992624c895f80dd42a50cac0aa55982e2) compiled by '@Darwin' on 04/03/2020
          program call               : xtb --input H2C2N1_0_S_1.input H2C2N1_0_S_1.xyz --ohess --molden --namespace H2C2N1_0_S_1 output.out
          number of atoms            :                     5
          number of electrons        :                    15
          charge                     :                     0
          spin                       :                   0.5

   ID    Z sym.   atoms
    1    6 C      1, 3
    2    7 N      2
    3    1 H      4, 5

          :  Hamiltonian                  GFN2-xTB          :
 * total energy  :    -7.8433392 Eh     change        0.2219523E-08 Eh
 * total energy  :    -7.8620769 Eh     change       -0.1873766E-01 Eh
 * total energy  :    -7.9357192 Eh     change       -0.7364229E-01 Eh
 * total energy  :    -7.9039344 Eh     change        0.3178473E-01 Eh
 * total energy  :    -7.9853482 Eh     change       -0.8141375E-01 Eh
 * total energy  :    -8.0039998 Eh     change       -0.1865167E-01 Eh
 * total energy  :    -7.9904570 Eh     change        0.1354281E-01 Eh
 * total energy  :    -8.0176679 Eh     change       -0.2721085E-01 Eh
 * total energy  :    -8.0191681 Eh     change       -0.1500260E-02 Eh
 * total energy  :    -8.0197364 Eh     change       -0.5682901E-03 Eh
 * total energy  :    -8.0199463 Eh     change       -0.2099017E-03 Eh
 * total energy  :    -8.0202022 Eh     change       -0.2559146E-03 Eh
 * total energy  :    -8.0202076 Eh     change       -0.5313654E-05 Eh
 * total energy  :    -8.0202081 Eh     change       -0.4996899E-06 Eh
   *** GEOMETRY OPTIMIZATION CONVERGED AFTER 14 ITERATIONS ***

 final structure:
================
5
 xtb: 6.2.2 (9d81278992624c895f80dd42a50cac0aa55982e2)
C         0.04101772974221   -0.33414943868706    0.01144945275909
N        -0.55939289224715    1.14213716452979   -0.02310279559590
C         0.66183603944141    0.96209458460150   -0.06279394396109
H        -0.03652986497629   -0.84918301955290    0.95761661052511
H        -0.10693001196019   -0.92089829089133   -0.88316932372721

          :  Hamiltonian                  GFN2-xTB          :
         :: gradient norm              0.000086795064 Eh/a0 ::
         :: HOMO-LUMO gap              3.468483137039 eV    ::
         :: SCC energy                -8.138839641077 Eh    ::
         :: -> dispersion             -0.001459221198 Eh    ::
         :: repulsion energy           0.118631557710 Eh    ::

    * Orbital Energies and Occupations

         #    Occupation            Energy/Eh            Energy/eV
      -------------------------------------------------------------
         1        2.0000           -0.6993081             -19.0291
         2        2.0000           -0.6106315             -16.6161
         3        2.0000           -0.5539492             -15.0737
         4        2.0000           -0.5497112             -14.9584
         5        2.0000           -0.5225187             -14.2185
         6        2.0000           -0.4555336             -12.3957
         7        2.0000           -0.4320220             -11.7559
         8        1.0000           -0.3913079             -10.6480 (HOMO)
         9                         -0.2638435              -7.1795 (LUMO)
        10                         -0.1467249              -3.9926
        11                          0.0787170               2.1420
        12                          0.1893502               5.1525
        13                          0.2464388               6.7059
        14                          0.5892297              16.0338
      -------------------------------------------------------------
                  HL-Gap            0.1274644 Eh            3.4685 eV

     #   Z        covCN         q      C6AA      Î±(0)
     1   6 C      3.716     0.016    20.427     6.457
     2   7 N      1.796    -0.175    25.571     7.491
     3   6 C      1.890     0.043    30.020     8.849
     4   1 H      0.926     0.058     2.224     2.332
     5   1 H      0.926     0.058     2.224     2.332

Wiberg/Mayer (AO) data.
largest (>0.10) Wiberg bond orders for each atom
          total WBO             WBO to atom ...

molecular dipole:
                 x           y           z       tot (Debye)
 q only:        0.224      -0.503       0.011
   full:        0.320      -0.699       0.015       1.953

 projected vibrational frequencies (cm-1)
eigval :       -0.00    -0.00    -0.00     0.00     0.00     0.00
eigval :      677.07   782.06   927.40  1007.09  1227.62  1405.41
eigval :     1856.61  3062.40  3081.15

   temp. (K)  partition function   enthalpy   heat capacity  entropy
                                   cal/mol     cal/K/mol   cal/K/mol   J/K/mol
  10.00  VIB   1.00                    0.000      0.000     -0.000
         ROT   40.8                   29.809      2.981     10.353
         INT   40.8                   29.809      2.981     10.353
         TR   0.151E+25               49.681      4.968     20.115
         TOT                          79.4904     7.9490    30.4673   127.4752

       T/K    H(0)-H(T)+PV         H(T)/Eh          T*S/Eh         G(T)/Eh
   ------------------------------------------------------------------------
    298.15    0.409069E-02    0.360461E-01    0.276890E-01    0.835714E-02
    120.00    0.152143E-02    0.334768E-01    0.960401E-02    0.238728E-01
    100.00    0.126700E-02    0.332224E-01    0.777149E-02    0.254509E-01
     80.00    0.101343E-02    0.329688E-01    0.599094E-02    0.269779E-01
     60.00    0.760056E-03    0.327155E-01    0.427460E-02    0.284409E-01
     40.00    0.506704E-03    0.324621E-01    0.264434E-02    0.298178E-01
     20.00    0.253352E-03    0.322088E-01    0.114661E-02    0.310622E-01
     10.00    0.126676E-03    0.320821E-01    0.485527E-03    0.315966E-01 (used)
   ------------------------------------------------------------------------

         :::::::::::::::::::::::::::::::::::::::::::::::::::::
         ::                  THERMODYNAMIC                  ::
         :::::::::::::::::::::::::::::::::::::::::::::::::::::
         :: total free energy          -7.988611493772 Eh   ::
         ::.................................................::
         :: total energy               -8.020208060355 Eh   ::
         :: zero point energy           0.031955418050 Eh   ::
         :: G(RRHO) w/o ZPVE           -0.000358851467 Eh   ::
         :: G(RRHO) contrib.            0.031596566582 Eh   ::
         :::::::::::::::::::::::::::::::::::::::::::::::::::::

           -------------------------------------------------
          | TOTAL ENERGY               -8.020208060355 Eh   |
          | TOTAL ENTHALPY             -7.988125966289 Eh   |
          | TOTAL FREE ENERGY          -7.988611493772 Eh   |
          | GRADIENT NORM               0.000086452885 Eh/Î± |
          | HOMO-LUMO GAP               3.468484122868 eV   |
           -------------------------------------------------

 * finished run on 2020/05/12 at 11:44:45.097
