   * xtb version 6.2.2 (9d81278992624c895f80dd42a50cac0aa55982e2) compiled by '@Darwin' on 04/03/2020
          program call               : xtb --input H2C1N2_3_S_2.input H2C1N2_3_S_2.xyz --ohess --molden --namespace H2C1N2_3_S_2 output.out
          number of atoms            :                     5
          number of electrons        :                    16
          charge                     :                     0
          spin                       :                   1.0

   ID    Z sym.   atoms
    1    7 N      1, 3
    2    6 C      2
    3    1 H      4, 5

          :  Hamiltonian                  GFN2-xTB          :
 * total energy  :    -8.7246065 Eh     change        0.5593588E-09 Eh
 * total energy  :    -8.7816856 Eh     change       -0.5707910E-01 Eh
 * total energy  :    -8.7708242 Eh     change        0.1086142E-01 Eh
 * total energy  :    -8.7936063 Eh     change       -0.2278206E-01 Eh
 * total energy  :    -8.7948528 Eh     change       -0.1246538E-02 Eh
 * total energy  :    -8.7952385 Eh     change       -0.3856273E-03 Eh
 * total energy  :    -8.7953532 Eh     change       -0.1147332E-03 Eh
 * total energy  :    -8.7965797 Eh     change       -0.1226523E-02 Eh
 * total energy  :    -8.7959498 Eh     change        0.6298623E-03 Eh
 * total energy  :    -8.8049054 Eh     change       -0.8955545E-02 Eh
 * total energy  :    -8.8194197 Eh     change       -0.1621029E-02 Eh
 * total energy  :    -8.8213166 Eh     change       -0.1896942E-02 Eh
 * total energy  :    -8.8216963 Eh     change       -0.3796575E-03 Eh
 * total energy  :    -8.8218142 Eh     change       -0.1179528E-03 Eh
 * total energy  :    -8.8218402 Eh     change       -0.2591763E-04 Eh
 * total energy  :    -8.8218778 Eh     change       -0.3761093E-04 Eh
 * total energy  :    -8.8218922 Eh     change       -0.1445714E-04 Eh
 * total energy  :    -8.8219079 Eh     change       -0.1562617E-04 Eh
 * total energy  :    -8.8219081 Eh     change       -0.2881712E-06 Eh
   *** GEOMETRY OPTIMIZATION CONVERGED AFTER 22 ITERATIONS ***

 final structure:
================
5
 xtb: 6.2.2 (9d81278992624c895f80dd42a50cac0aa55982e2)
N         0.68941095528265   -0.48496074600945   -0.09544580894475
C        -0.49719832204135    0.05365921029164   -0.02153714456020
N         1.81319652156748   -0.08950180380607    0.11324472715722
H        -1.34190552732018   -0.56405533022976   -0.27960485309431
H        -0.66350262748859    1.08485866975364    0.28334307944204

          :  Hamiltonian                  GFN2-xTB          :
         :: gradient norm              0.000209444532 Eh/a0 ::
         :: HOMO-LUMO gap              1.915095967468 eV    ::
         :: SCC energy                -8.926036960871 Eh    ::
         :: -> dispersion             -0.001428510557 Eh    ::
         :: repulsion energy           0.104128799690 Eh    ::

    * Orbital Energies and Occupations

         #    Occupation            Energy/Eh            Energy/eV
      -------------------------------------------------------------
         1        2.0000           -0.6902837             -18.7836
         2        2.0000           -0.6532727             -17.7765
         3        2.0000           -0.5775661             -15.7164
         4        2.0000           -0.5540349             -15.0761
         5        2.0000           -0.5491152             -14.9422
         6        2.0000           -0.4894893             -13.3197
         7        2.0000           -0.4391783             -11.9507
         8        1.0000           -0.3985459             -10.8450
         9        1.0000           -0.3119231              -8.4879 (HOMO)
        10                         -0.2415446              -6.5728 (LUMO)
        11                          0.0894317               2.4336
        12                          0.1964963               5.3469
        13                          0.2819925               7.6734
        14                          0.5910622              16.0836
      -------------------------------------------------------------
                  HL-Gap            0.0703785 Eh            1.9151 eV

     #   Z        covCN         q      C6AA      Î±(0)
     1   7 N      1.891     0.045    21.121     6.813
     2   6 C      2.780     0.004    27.923     8.655
     3   7 N      1.000    -0.200    24.866     7.164
     4   1 H      0.926     0.079     1.991     2.206
     5   1 H      0.925     0.073     2.057     2.243

Wiberg/Mayer (AO) data.
largest (>0.10) Wiberg bond orders for each atom
          total WBO             WBO to atom ...

molecular dipole:
                 x           y           z       tot (Debye)
 q only:       -0.922       0.058      -0.054
   full:       -1.297       0.181      -0.045       3.332

 projected vibrational frequencies (cm-1)
eigval :       -0.00    -0.00    -0.00     0.00     0.00     0.00
eigval :      355.90   426.24   811.29  1057.44  1247.41  1386.87
eigval :     1648.80  2941.77  3099.72

   temp. (K)  partition function   enthalpy   heat capacity  entropy
                                   cal/mol     cal/K/mol   cal/K/mol   J/K/mol
  10.00  VIB   1.00                    0.000      0.000     -0.001
         ROT   40.0                   29.809      2.981     10.310
         INT   40.0                   29.809      2.981     10.309
         TR   0.162E+25               49.681      4.968     20.259
         TOT                          79.4904     7.9490    30.5680   127.8965

       T/K    H(0)-H(T)+PV         H(T)/Eh          T*S/Eh         G(T)/Eh
   ------------------------------------------------------------------------
    298.15    0.454538E-02    0.341056E-01    0.284561E-01    0.564950E-02
    120.00    0.155520E-02    0.311155E-01    0.966482E-02    0.214506E-01
    100.00    0.128076E-02    0.308410E-01    0.780406E-02    0.230370E-01
     80.00    0.101702E-02    0.305773E-01    0.600804E-02    0.245692E-01
     60.00    0.760446E-03    0.303207E-01    0.428475E-02    0.260359E-01
     40.00    0.506709E-03    0.300670E-01    0.265081E-02    0.274161E-01
     20.00    0.253352E-03    0.298136E-01    0.114983E-02    0.286638E-01
     10.00    0.126676E-03    0.296869E-01    0.487132E-03    0.291998E-01 (used)
   ------------------------------------------------------------------------

         :::::::::::::::::::::::::::::::::::::::::::::::::::::
         ::                  THERMODYNAMIC                  ::
         :::::::::::::::::::::::::::::::::::::::::::::::::::::
         :: total free energy          -8.792708349655 Eh   ::
         ::.................................................::
         :: total energy               -8.821908146721 Eh   ::
         :: zero point energy           0.029560253196 Eh   ::
         :: G(RRHO) w/o ZPVE           -0.000360456129 Eh   ::
         :: G(RRHO) contrib.            0.029199797066 Eh   ::
         :::::::::::::::::::::::::::::::::::::::::::::::::::::

           -------------------------------------------------
          | TOTAL ENERGY               -8.821908146721 Eh   |
          | TOTAL ENTHALPY             -8.792221217510 Eh   |
          | TOTAL FREE ENERGY          -8.792708349655 Eh   |
          | GRADIENT NORM               0.000209459047 Eh/Î± |
          | HOMO-LUMO GAP               1.915096268927 eV   |
           -------------------------------------------------

 * finished run on 2020/05/12 at 11:45:21.223
