   * xtb version 6.2.2 (9d81278992624c895f80dd42a50cac0aa55982e2) compiled by '@Darwin' on 04/03/2020
          program call               : xtb --input C4N1_29_S_1.input C4N1_29_S_1.xyz --ohess --molden --namespace C4N1_29_S_1 output.out
          number of atoms            :                     5
          number of electrons        :                    21
          charge                     :                     0
          spin                       :                   0.5

   ID    Z sym.   atoms
    1    6 C      1, 3-5
    2    7 N      2

          :  Hamiltonian                  GFN2-xTB          :
 * total energy  :   -10.9114182 Eh     change       -0.1165544E-08 Eh
 * total energy  :   -10.9163341 Eh     change       -0.4915855E-02 Eh
 * total energy  :   -10.9175998 Eh     change       -0.1265770E-02 Eh
 * total energy  :   -10.9177055 Eh     change       -0.1056355E-03 Eh
 * total energy  :   -10.9262322 Eh     change       -0.8526769E-02 Eh
 * total energy  :   -10.9290251 Eh     change       -0.2792809E-02 Eh
 * total energy  :   -10.9669436 Eh     change       -0.3791854E-01 Eh
 * total energy  :   -11.0345849 Eh     change       -0.6764131E-01 Eh
 * total energy  :   -11.0360374 Eh     change       -0.1452481E-02 Eh
 * total energy  :   -11.0510788 Eh     change       -0.1504138E-01 Eh
 * total energy  :   -11.0563426 Eh     change       -0.4704426E-02 Eh
 * total energy  :   -11.0648583 Eh     change       -0.8515673E-02 Eh
 * total energy  :   -11.0704827 Eh     change       -0.5624485E-02 Eh
 * total energy  :   -11.0707333 Eh     change       -0.2505916E-03 Eh
 * total energy  :   -11.0708188 Eh     change       -0.8547618E-04 Eh
 * total energy  :   -11.0708547 Eh     change       -0.3586398E-04 Eh
 * total energy  :   -11.0708700 Eh     change       -0.1534707E-04 Eh
 * total energy  :   -11.0708749 Eh     change       -0.4826500E-05 Eh
 * total energy  :   -11.0708776 Eh     change       -0.2742522E-05 Eh
   *** GEOMETRY OPTIMIZATION CONVERGED AFTER 20 ITERATIONS ***

 final structure:
================
5
 xtb: 6.2.2 (9d81278992624c895f80dd42a50cac0aa55982e2)
C        -0.85364930969157    0.66479021728908    0.12188734990112
N         0.15848892662432    0.24011949461276   -0.87377694866832
C         0.82301742260676   -0.71157449080167    0.04883018180460
C        -0.61366619148347   -0.75164417746611    0.07061765250086
C         0.48580915194395    0.55830795636594    0.63244176446173

          :  Hamiltonian                  GFN2-xTB          :
         :: gradient norm              0.000831217655 Eh/a0 ::
         :: HOMO-LUMO gap              2.482307136565 eV    ::
         :: SCC energy               -11.198606040573 Eh    ::
         :: -> dispersion             -0.002479611081 Eh    ::
         :: repulsion energy           0.127728431369 Eh    ::

    * Orbital Energies and Occupations

         #    Occupation            Energy/Eh            Energy/eV
      -------------------------------------------------------------
         1        2.0000           -0.7940786             -21.6080
         2        2.0000           -0.6839848             -18.6122
         3        2.0000           -0.6660963             -18.1254
         4        2.0000           -0.6416947             -17.4614
         5        2.0000           -0.5506410             -14.9837
         6        2.0000           -0.5400129             -14.6945
         7        2.0000           -0.5042069             -13.7202
         8        2.0000           -0.5015184             -13.6470
         9        2.0000           -0.4973064             -13.5324
        10        2.0000           -0.4771069             -12.9827
        11        1.0000           -0.4216254             -11.4730 (HOMO)
        12                         -0.3304023              -8.9907 (LUMO)
        13                         -0.2457344              -6.6868
        14                         -0.2381934              -6.4816
        15                         -0.0964446              -2.6244
        16                         -0.0621082              -1.6900
        17                          0.0804747               2.1898
        18                          0.0928247               2.5259
        19                          0.2314343               6.2976
        20                          0.4129932              11.2381
      -------------------------------------------------------------
                  HL-Gap            0.0912231 Eh            2.4823 eV

     #   Z        covCN         q      C6AA      Î±(0)
     1   6 C      3.044     0.026    27.371     8.581
     2   7 N      3.594    -0.083    22.856     7.101
     3   6 C      3.044     0.026    27.374     8.581
     4   6 C      3.690     0.015    20.503     6.480
     5   6 C      3.689     0.015    20.504     6.481

Wiberg/Mayer (AO) data.
largest (>0.10) Wiberg bond orders for each atom
          total WBO             WBO to atom ...

molecular dipole:
                 x           y           z       tot (Debye)
 q only:       -0.030      -0.046       0.167
   full:        0.005       0.009      -0.029       0.077

 projected vibrational frequencies (cm-1)
eigval :       -0.00    -0.00    -0.00     0.00     0.00     0.00
eigval :      299.63   432.52   699.42   773.77  1040.06  1048.92
eigval :     1080.15  1323.17  1421.42

   temp. (K)  partition function   enthalpy   heat capacity  entropy
                                   cal/mol     cal/K/mol   cal/K/mol   J/K/mol
  10.00  VIB   1.00                    0.000      0.000     -0.002
         ROT   63.1                   29.809      2.981     11.217
         INT   63.1                   29.809      2.981     11.215
         TR   0.290E+25               49.681      4.968     21.419
         TOT                          79.4904     7.9490    32.6346   136.5432

       T/K    H(0)-H(T)+PV         H(T)/Eh          T*S/Eh         G(T)/Eh
   ------------------------------------------------------------------------
    298.15    0.478169E-02    0.232783E-01    0.297845E-01   -0.650621E-02
    120.00    0.157095E-02    0.200675E-01    0.100811E-01    0.998643E-02
    100.00    0.128944E-02    0.197860E-01    0.814455E-02    0.116415E-01
     80.00    0.102051E-02    0.195171E-01    0.627584E-02    0.132413E-01
     60.00    0.761153E-03    0.192577E-01    0.448324E-02    0.147745E-01
     40.00    0.506733E-03    0.190033E-01    0.278261E-02    0.162207E-01
     20.00    0.253352E-03    0.187499E-01    0.121571E-02    0.175342E-01
     10.00    0.126676E-03    0.186233E-01    0.520066E-03    0.181032E-01 (used)
   ------------------------------------------------------------------------

         :::::::::::::::::::::::::::::::::::::::::::::::::::::
         ::                  THERMODYNAMIC                  ::
         :::::::::::::::::::::::::::::::::::::::::::::::::::::
         :: total free energy         -11.052774389669 Eh   ::
         ::.................................................::
         :: total energy              -11.070877595268 Eh   ::
         :: zero point energy           0.018496595301 Eh   ::
         :: G(RRHO) w/o ZPVE           -0.000393389702 Eh   ::
         :: G(RRHO) contrib.            0.018103205598 Eh   ::
         :::::::::::::::::::::::::::::::::::::::::::::::::::::

           -------------------------------------------------
          | TOTAL ENERGY              -11.070877595268 Eh   |
          | TOTAL ENTHALPY            -11.052254323951 Eh   |
          | TOTAL FREE ENERGY         -11.052774389669 Eh   |
          | GRADIENT NORM               0.000831176027 Eh/Î± |
          | HOMO-LUMO GAP               2.482307155781 eV   |
           -------------------------------------------------

 * finished run on 2020/05/12 at 11:44:11.089
