   * xtb version 6.2.2 (9d81278992624c895f80dd42a50cac0aa55982e2) compiled by '@Darwin' on 04/03/2020
          program call               : xtb --input C4N1_15_S_3.input C4N1_15_S_3.xyz --ohess --molden --namespace C4N1_15_S_3 output.out
          number of atoms            :                     5
          number of electrons        :                    21
          charge                     :                     0
          spin                       :                   1.5

   ID    Z sym.   atoms
    1    7 N      1
    2    6 C      2-5

          :  Hamiltonian                  GFN2-xTB          :
 * total energy  :   -10.9080653 Eh     change        0.1216307E-09 Eh
 * total energy  :   -10.9596360 Eh     change       -0.5157063E-01 Eh
 * total energy  :   -10.9799362 Eh     change       -0.2030024E-01 Eh
 * total energy  :   -10.9945369 Eh     change       -0.1460068E-01 Eh
 * total energy  :   -10.9992287 Eh     change       -0.4691838E-02 Eh
 * total energy  :   -11.0001224 Eh     change       -0.8936510E-03 Eh
 * total energy  :   -11.0015520 Eh     change       -0.1429627E-02 Eh
 * total energy  :   -11.0020728 Eh     change       -0.5208284E-03 Eh
 * total energy  :   -11.0022346 Eh     change       -0.1618024E-03 Eh
 * total energy  :   -11.0023254 Eh     change       -0.9078640E-04 Eh
 * total energy  :   -11.0023730 Eh     change       -0.4761923E-04 Eh
 * total energy  :   -11.0023873 Eh     change       -0.1423503E-04 Eh
 * total energy  :   -11.0023903 Eh     change       -0.3011138E-05 Eh
   *** GEOMETRY OPTIMIZATION CONVERGED AFTER 13 ITERATIONS ***

 final structure:
================
5
 xtb: 6.2.2 (9d81278992624c895f80dd42a50cac0aa55982e2)
N        -0.47590603395099   -0.90970159610215    0.02990669236162
C         0.63301453524940    0.06016494833853   -0.01058939870029
C        -0.56111184796548    0.92072192851786   -0.01604388084946
C         1.90185717858552    0.03679145137143   -0.02549331952641
C        -1.49785383191845   -0.10797673212567    0.02222090671455

          :  Hamiltonian                  GFN2-xTB          :
         :: gradient norm              0.000854758200 Eh/a0 ::
         :: HOMO-LUMO gap              1.920300079547 eV    ::
         :: SCC energy               -11.172450046601 Eh    ::
         :: -> dispersion             -0.002903445595 Eh    ::
         :: repulsion energy           0.170059739189 Eh    ::

    * Orbital Energies and Occupations

         #    Occupation            Energy/Eh            Energy/eV
      -------------------------------------------------------------
         1        2.0000           -0.7522035             -20.4685
         2        2.0000           -0.6852920             -18.6477
         3        2.0000           -0.6414551             -17.4549
         4        2.0000           -0.6267874             -17.0558
         5        2.0000           -0.5782860             -15.7360
         6        2.0000           -0.5713530             -15.5473
         7        2.0000           -0.5098546             -13.8738
         8        2.0000           -0.4703674             -12.7993
         9        2.0000           -0.4664492             -12.6927
        10        1.0000           -0.4237388             -11.5305
        11        1.0000           -0.4123663             -11.2211
        12        1.0000           -0.4098679             -11.1531 (HOMO)
        13                         -0.3392982              -9.2328 (LUMO)
        14                         -0.3038399              -8.2679
        15                         -0.1800556              -4.8996
        16                         -0.0117596              -0.3200
        17                          0.1105887               3.0093
        18                          0.1902014               5.1756
        19                          0.4226130              11.4999
        20                          0.8335495              22.6820
      -------------------------------------------------------------
                  HL-Gap            0.0705697 Eh            1.9203 eV

     #   Z        covCN         q      C6AA      Î±(0)
     1   7 N      2.483    -0.069    22.627     7.064
     2   6 C      3.093     0.132    25.015     8.197
     3   6 C      2.626    -0.004    28.122     8.674
     4   6 C      0.982    -0.101    39.137    10.508
     5   6 C      2.119     0.042    29.759     8.816

Wiberg/Mayer (AO) data.
largest (>0.10) Wiberg bond orders for each atom
          total WBO             WBO to atom ...

molecular dipole:
                 x           y           z       tot (Debye)
 q only:       -0.259       0.110       0.000
   full:       -0.426       0.064       0.004       1.095

 projected vibrational frequencies (cm-1)
Molecule has the following symmetry elements: (sigma)
It seems to be the Cs point group
eigval :       -0.00    -0.00     0.00     0.00     0.00     0.00
eigval :      259.45   346.40   427.16   434.20   512.81   907.57
eigval :     1078.20  1481.99  1764.33

   temp. (K)  partition function   enthalpy   heat capacity  entropy
                                   cal/mol     cal/K/mol   cal/K/mol   J/K/mol
  10.00  VIB   1.00                    0.000      0.000     -0.004
         ROT   203.                   29.809      2.981     13.537
         INT   203.                   29.809      2.981     13.533
         TR   0.290E+25               49.681      4.968     21.419
         TOT                          79.4904     7.9490    34.9523   146.2404

       T/K    H(0)-H(T)+PV         H(T)/Eh          T*S/Eh         G(T)/Eh
   ------------------------------------------------------------------------
    298.15    0.547829E-02    0.219087E-01    0.319972E-01   -0.100885E-01
    120.00    0.162814E-02    0.180585E-01    0.105977E-01    0.746082E-02
    100.00    0.131610E-02    0.177465E-01    0.854739E-02    0.919910E-02
     80.00    0.102968E-02    0.174601E-01    0.658268E-02    0.108774E-01
     60.00    0.762938E-03    0.171933E-01    0.470713E-02    0.124862E-01
     40.00    0.506816E-03    0.169372E-01    0.293055E-02    0.140067E-01
     20.00    0.253352E-03    0.166837E-01    0.128961E-02    0.153941E-01
     10.00    0.126676E-03    0.165571E-01    0.557000E-03    0.160001E-01 (used)
   ------------------------------------------------------------------------

         :::::::::::::::::::::::::::::::::::::::::::::::::::::
         ::                  THERMODYNAMIC                  ::
         :::::::::::::::::::::::::::::::::::::::::::::::::::::
         :: total free energy         -10.986390233883 Eh   ::
         ::.................................................::
         :: total energy              -11.002390295800 Eh   ::
         :: zero point energy           0.016430386163 Eh   ::
         :: G(RRHO) w/o ZPVE           -0.000430324247 Eh   ::
         :: G(RRHO) contrib.            0.016000061917 Eh   ::
         :::::::::::::::::::::::::::::::::::::::::::::::::::::

           -------------------------------------------------
          | TOTAL ENERGY              -11.002390295800 Eh   |
          | TOTAL ENTHALPY            -10.985833233621 Eh   |
          | TOTAL FREE ENERGY         -10.986390233883 Eh   |
          | GRADIENT NORM               0.000854449149 Eh/Î± |
          | HOMO-LUMO GAP               1.920298997196 eV   |
           -------------------------------------------------

 * finished run on 2020/05/12 at 11:44:04.764
