 Gaussian 16, Revision B.01,
 Gaussian 16:  ES64L-G16RevB.01 20-Dec-2017

 ------------------------
 #P ROCCSD(T)/aug-cc-pvtz
 ------------------------

 -----
 Title
 -----
 Symbolic Z-matrix:
 Charge =  0 Multiplicity = 3

                         Standard orientation:
 ---------------------------------------------------------------------
 Center     Atomic      Atomic             Coordinates (Angstroms)
 Number     Number       Type             X           Y           Z
 ---------------------------------------------------------------------
      1         16           0        0.000000    0.000000    0.000000
 ---------------------------------------------------------------------

 SCF Done:  E(ROHF) =  -397.504004993     A.U. after   11 cycles
 E2 =    -0.1256682121D+00 EUMP2 =    -0.39762967320521D+03
 CCSD(T)
 CCSD(T)= -0.39765610082D+03

 Unable to determine electronic state:  an orbital has unidentified symmetry.
 Alpha  occ. eigenvalues --  -92.01417  -9.01398  -6.70556  -6.70556  -6.68560
 Alpha  occ. eigenvalues --   -0.98548  -0.48107  -0.48107  -0.42349
 Alpha virt. eigenvalues --    0.09191   0.09191   0.09948   0.09994   0.24165
 Alpha virt. eigenvalues --    0.24165   0.25786   0.25786   0.26202   0.51336
 Alpha virt. eigenvalues --    0.51336   0.54242   0.66968   0.66968   0.70275

 Mulliken charges and spin densities:
               1          2
     1  S   -0.000000   2.000000
 Sum of Mulliken charges =  -0.00000   2.00000

 Dipole moment (field-independent basis, Debye):
    X=              0.0000    Y=              0.0000    Z=              0.0000  Tot=              0.0000
 Quadrupole moment (field-independent basis, Debye-Ang):
   XX=            -12.1547   YY=            -15.0210   ZZ=            -12.1547
   XY=              0.0000   XZ=             -0.0000   YZ=             -0.0000

 =-397.6296732\MP4SDQ=-397.6512758\CCSD=-397.6509082\CCSD(T)=-397.65610
 Normal termination of Gaussian 16 at Mon Oct  5 21:32:48 2020.
