   * xtb version 6.2.2 (9d81278992624c895f80dd42a50cac0aa55982e2) compiled by '@Darwin' on 04/03/2020
          program call               : xtb --input H1C3N1_17_S_0.input H1C3N1_17_S_0.xyz --ohess --molden --namespace H1C3N1_17_S_0 output.out
          number of atoms            :                     5
          number of electrons        :                    18
          charge                     :                     0
          spin                       :                   0.0

   ID    Z sym.   atoms
    1    6 C      1, 3, 4
    2    7 N      2
    3    1 H      5

          :  Hamiltonian                  GFN2-xTB          :
 * total energy  :    -9.4177968 Eh     change       -0.1101514E-08 Eh
 * total energy  :    -9.4730685 Eh     change       -0.5527167E-01 Eh
 * total energy  :    -9.5232631 Eh     change       -0.5019459E-01 Eh
 * total energy  :    -9.5311971 Eh     change       -0.7934036E-02 Eh
 * total energy  :    -9.5350957 Eh     change       -0.3898533E-02 Eh
 * total energy  :    -9.5366741 Eh     change       -0.1578468E-02 Eh
 * total energy  :    -9.5392128 Eh     change       -0.2538654E-02 Eh
 * total energy  :    -9.5578514 Eh     change       -0.1863861E-01 Eh
 * total energy  :    -9.5373777 Eh     change        0.2047374E-01 Eh
 * total energy  :    -9.5911688 Eh     change       -0.5379116E-01 Eh
 * total energy  :    -9.6386826 Eh     change       -0.1772905E-03 Eh
 * total energy  :    -9.6387393 Eh     change       -0.5676998E-04 Eh
 * total energy  :    -9.6387862 Eh     change       -0.4688053E-04 Eh
 * total energy  :    -9.6388094 Eh     change       -0.2320793E-04 Eh
 * total energy  :    -9.6388326 Eh     change       -0.2320526E-04 Eh
 * total energy  :    -9.6388441 Eh     change       -0.1152732E-04 Eh
 * total energy  :    -9.6388668 Eh     change       -0.2267975E-04 Eh
 * total energy  :    -9.6388814 Eh     change       -0.1455084E-04 Eh
 * total energy  :    -9.6388858 Eh     change       -0.4444511E-05 Eh
   *** GEOMETRY OPTIMIZATION CONVERGED AFTER 36 ITERATIONS ***

 final structure:
================
5
 xtb: 6.2.2 (9d81278992624c895f80dd42a50cac0aa55982e2)
C         1.23449595352583   -0.15831758220474    0.03082421417446
N         0.08010868338115   -0.00743917687374    0.00109659858375
C        -2.41217753241313    0.30398722791644   -0.05930555266937
C        -1.17460201115460    0.14941728560071   -0.02923176215930
H         2.27217490666076   -0.28764775443869    0.05661650207046

          :  Hamiltonian                  GFN2-xTB          :
         :: gradient norm              0.000526645836 Eh/a0 ::
         :: HOMO-LUMO gap              2.748135557496 eV    ::
         :: SCC energy                -9.878039744187 Eh    ::
         :: -> dispersion             -0.002075822206 Eh    ::
         :: repulsion energy           0.239154455119 Eh    ::

    * Orbital Energies and Occupations

         #    Occupation            Energy/Eh            Energy/eV
      -------------------------------------------------------------
         1        2.0000           -0.7021697             -19.1070
         2        2.0000           -0.6431840             -17.5019
         3        2.0000           -0.5963854             -16.2285
         4        2.0000           -0.5711749             -15.5425
         5        2.0000           -0.5631551             -15.3242
         6        2.0000           -0.5631548             -15.3242
         7        2.0000           -0.3993549             -10.8670
         8        2.0000           -0.3993545             -10.8670
         9        2.0000           -0.3807701             -10.3613 (HOMO)
        10                         -0.2797775              -7.6131 (LUMO)
        11                         -0.2797749              -7.6131
        12                         -0.0985960              -2.6829
        13                         -0.0985929              -2.6828
        14                          0.0061577               0.1676
        15                          0.2809808               7.6459
        16                          0.9413709              25.6160
        17                          1.4454597              39.3330
      -------------------------------------------------------------
                  HL-Gap            0.1009926 Eh            2.7481 eV

     #   Z        covCN         q      C6AA      Î±(0)
     1   6 C      1.850    -0.020    31.687     9.093
     2   7 N      1.822     0.123    19.763     6.587
     3   6 C      0.982    -0.218    43.315    11.055
     4   6 C      1.902    -0.007    31.307     9.036
     5   1 H      0.928     0.123     1.592     1.973

Wiberg/Mayer (AO) data.
largest (>0.10) Wiberg bond orders for each atom
          total WBO             WBO to atom ...

molecular dipole:
                 x           y           z       tot (Debye)
 q only:        1.507      -0.190       0.037
   full:        2.306      -0.289       0.056       5.908

   temp. (K)  partition function   enthalpy   heat capacity  entropy
                                   cal/mol     cal/K/mol   cal/K/mol   J/K/mol
  10.00  VIB   1.00                    0.000      0.000     -0.026
         ROT   41.1                   19.873      1.987      9.370
         INT   41.1                   19.873      1.987      9.344
         TR   0.217E+25               49.681      4.968     20.838
         TOT                          69.5541     6.9554    30.1823   126.2827

       T/K    H(0)-H(T)+PV         H(T)/Eh          T*S/Eh         G(T)/Eh
   ------------------------------------------------------------------------
    298.15    0.590022E-02    0.301024E-01    0.301074E-01   -0.504827E-05
    120.00    0.169293E-02    0.258951E-01    0.960851E-02    0.162866E-01
    100.00    0.133003E-02    0.255322E-01    0.767708E-02    0.178551E-01
     80.00    0.100000E-02    0.252022E-01    0.584788E-02    0.193543E-01
     60.00    0.706146E-03    0.249083E-01    0.413306E-02    0.207753E-01
     40.00    0.449716E-03    0.246519E-01    0.254811E-02    0.221038E-01
     20.00    0.221712E-03    0.244239E-01    0.111619E-02    0.233077E-01
     10.00    0.110842E-03    0.243130E-01    0.480985E-03    0.238320E-01 (used)
   ------------------------------------------------------------------------

         :::::::::::::::::::::::::::::::::::::::::::::::::::::
         ::                  THERMODYNAMIC                  ::
         :::::::::::::::::::::::::::::::::::::::::::::::::::::
         :: total free energy          -9.615053777298 Eh   ::
         ::.................................................::
         :: total energy               -9.638885817551 Eh   ::
         :: zero point energy           0.024202184089 Eh   ::
         :: G(RRHO) w/o ZPVE           -0.000370143836 Eh   ::
         :: G(RRHO) contrib.            0.023832040253 Eh   ::
         :::::::::::::::::::::::::::::::::::::::::::::::::::::

           -------------------------------------------------
          | TOTAL ENERGY               -9.638885817551 Eh   |
          | TOTAL ENTHALPY             -9.614572791948 Eh   |
          | TOTAL FREE ENERGY          -9.615053777298 Eh   |
          | GRADIENT NORM               0.000525166968 Eh/Î± |
          | HOMO-LUMO GAP               2.748147405791 eV   |
           -------------------------------------------------

 * finished run on 2020/05/12 at 11:44:57.024
