 Gaussian 16, Revision B.01,
 Gaussian 16:  ES64L-G16RevB.01 20-Dec-2017

 ------------------------
 #P ROCCSD(T)/aug-cc-pvtz
 ------------------------

 -----
 Title
 -----
 Symbolic Z-matrix:
 Charge =  0 Multiplicity = 3

                         Standard orientation:
 ---------------------------------------------------------------------
 Center     Atomic      Atomic             Coordinates (Angstroms)
 Number     Number       Type             X           Y           Z
 ---------------------------------------------------------------------
      1          8           0        0.000000    0.000000    0.000000
 ---------------------------------------------------------------------

 SCF Done:  E(ROHF) =  -74.8065084024     A.U. after   11 cycles
 E2 =    -0.1528683090D+00 EUMP2 =    -0.74959376711415D+02
 CCSD(T)
 CCSD(T)= -0.74978857195D+02

 Unable to determine electronic state:  an orbital has unidentified symmetry.
 Alpha  occ. eigenvalues --  -20.70912  -1.40580  -0.70280  -0.70280  -0.60669
 Alpha virt. eigenvalues --    0.15340   0.15340   0.15519   0.16294   0.62221
 Alpha virt. eigenvalues --    0.62221   0.63816   0.63816   0.64284   0.86855
 Alpha virt. eigenvalues --    0.86855   0.91290   1.26381   1.99503   1.99503

 Mulliken charges and spin densities:
               1          2
     1  O   -0.000000   2.000000
 Sum of Mulliken charges =  -0.00000   2.00000

 Dipole moment (field-independent basis, Debye):
    X=              0.0000    Y=              0.0000    Z=              0.0000  Tot=              0.0000
 Quadrupole moment (field-independent basis, Debye-Ang):
   XX=             -4.6226   YY=             -4.6226   ZZ=             -5.8661
   XY=             -0.0000   XZ=             -0.0000   YZ=              0.0000

 -74.9593767\MP4SDQ=-74.9750918\CCSD=-74.9753444\CCSD(T)=-74.9788572\RM
 Normal termination of Gaussian 16 at Mon Oct  5 21:29:55 2020.
