   * xtb version 6.2.2 (9d81278992624c895f80dd42a50cac0aa55982e2) compiled by '@Darwin' on 04/03/2020
          program call               : xtb --input C5_11_S_0.input C5_11_S_0.xyz --ohess --molden --namespace C5_11_S_0 output.out
          number of atoms            :                     5
          number of electrons        :                    20
          charge                     :                     0
          spin                       :                   0.0

   ID    Z sym.   atoms
    1    6 C      1-5

          :  Hamiltonian                  GFN2-xTB          :
 * total energy  :   -10.1146035 Eh     change       -0.3515943E-09 Eh
 * total energy  :   -10.1759509 Eh     change       -0.6134742E-01 Eh
 * total energy  :   -10.1848951 Eh     change       -0.8944201E-02 Eh
 * total energy  :   -10.2138370 Eh     change       -0.2894190E-01 Eh
 * total energy  :   -10.2188883 Eh     change       -0.5051265E-02 Eh
 * total energy  :   -10.2248113 Eh     change       -0.5923015E-02 Eh
 * total energy  :   -10.2281792 Eh     change       -0.3367920E-02 Eh
 * total energy  :   -10.2295800 Eh     change       -0.1400818E-02 Eh
 * total energy  :   -10.2308475 Eh     change       -0.1267502E-02 Eh
 * total energy  :   -10.2311955 Eh     change       -0.3480190E-03 Eh
 * total energy  :   -10.2314480 Eh     change       -0.2525225E-03 Eh
 * total energy  :   -10.2314759 Eh     change       -0.2787017E-04 Eh
 * total energy  :   -10.2314777 Eh     change       -0.1743402E-05 Eh
   *** GEOMETRY OPTIMIZATION CONVERGED AFTER 13 ITERATIONS ***

 final structure:
================
5
 xtb: 6.2.2 (9d81278992624c895f80dd42a50cac0aa55982e2)
C        -1.70167983425426   -0.00628630866734    0.00672488128137
C        -0.52209064357185   -0.18780097221561   -0.73682525706833
C         0.72615504976112    0.00449307556362   -0.00327520714846
C        -0.51764490285590    0.18468156844712    0.74079074154750
C         2.01526133092090    0.00491263687220   -0.00741615861208

          :  Hamiltonian                  GFN2-xTB          :
         :: gradient norm              0.000616520112 Eh/a0 ::
         :: HOMO-LUMO gap              0.908514114849 eV    ::
         :: SCC energy               -10.412567461624 Eh    ::
         :: -> dispersion             -0.002917042109 Eh    ::
         :: repulsion energy           0.181089861955 Eh    ::

    * Orbital Energies and Occupations

         #    Occupation            Energy/Eh            Energy/eV
      -------------------------------------------------------------
         1        2.0000           -0.7469669             -20.3260
         2        2.0000           -0.6948403             -18.9076
         3        2.0000           -0.6430355             -17.4979
         4        2.0000           -0.6095512             -16.5867
         5        2.0000           -0.5660712             -15.4036
         6        2.0000           -0.5437007             -14.7948
         7        2.0000           -0.4841066             -13.1732
         8        2.0000           -0.4632074             -12.6045
         9        2.0000           -0.4622971             -12.5797
        10        2.0000           -0.4389996             -11.9458 (HOMO)
        11                         -0.4056119             -11.0373 (LUMO)
        12                         -0.3526453              -9.5960
        13                         -0.3182320              -8.6595
        14                         -0.2451397              -6.6706
        15                         -0.1922759              -5.2321
        16                          0.0967555               2.6329
        17                          0.1367145               3.7202
        18                          0.1796967               4.8898
        19                          0.3872941              10.5388
        20                          0.7591355              20.6571
      -------------------------------------------------------------
                  HL-Gap            0.0333877 Eh            0.9085 eV

     #   Z        covCN         q      C6AA      Î±(0)
     1   6 C      1.972    -0.097    33.736     9.380
     2   6 C      2.934     0.050    26.868     8.501
     3   6 C      2.950     0.104    25.705     8.316
     4   6 C      2.934     0.050    26.868     8.501
     5   6 C      0.981    -0.108    39.355    10.537

Wiberg/Mayer (AO) data.
largest (>0.10) Wiberg bond orders for each atom
          total WBO             WBO to atom ...

molecular dipole:
                 x           y           z       tot (Debye)
 q only:       -0.055       0.001       0.000
   full:        0.142       0.003      -0.001       0.361

 projected vibrational frequencies (cm-1)
eigval :       -0.00    -0.00    -0.00    -0.00     0.00     0.00
eigval :     -202.08   206.97   362.89   519.50   720.43   738.73
eigval :     1149.16  1482.23  1804.54

   temp. (K)  partition function   enthalpy   heat capacity  entropy
                                   cal/mol     cal/K/mol   cal/K/mol   J/K/mol
  10.00  VIB   1.00                    0.000      0.000     -0.005
         ROT   90.4                   29.809      2.981     11.931
         INT   90.4                   29.809      2.981     11.926
         TR   0.277E+25               49.681      4.968     21.322
         TOT                          79.4904     7.9490    33.2477   139.1084

       T/K    H(0)-H(T)+PV         H(T)/Eh          T*S/Eh         G(T)/Eh
   ------------------------------------------------------------------------
    298.15    0.511402E-02    0.210258E-01    0.307108E-01   -0.968506E-02
    120.00    0.163350E-02    0.175452E-01    0.102880E-01    0.725722E-02
    100.00    0.132784E-02    0.172396E-01    0.829502E-02    0.894456E-02
     80.00    0.103942E-02    0.169512E-01    0.637890E-02    0.105723E-01
     60.00    0.766980E-03    0.166787E-01    0.454936E-02    0.121294E-01
     40.00    0.507259E-03    0.164190E-01    0.282254E-02    0.135965E-01
     20.00    0.253352E-03    0.161651E-01    0.123531E-02    0.149298E-01
     10.00    0.126676E-03    0.160384E-01    0.529836E-03    0.155086E-01 (used)
   ------------------------------------------------------------------------

         :::::::::::::::::::::::::::::::::::::::::::::::::::::
         ::                  THERMODYNAMIC                  ::
         :::::::::::::::::::::::::::::::::::::::::::::::::::::
         :: total free energy         -10.215969086852 Eh   ::
         ::.................................................::
         :: total energy              -10.231477662321 Eh   ::
         :: zero point energy           0.015911735545 Eh   ::
         :: G(RRHO) w/o ZPVE           -0.000403160076 Eh   ::
         :: G(RRHO) contrib.            0.015508575469 Eh   ::
         :::::::::::::::::::::::::::::::::::::::::::::::::::::

           -------------------------------------------------
          | TOTAL ENERGY              -10.231477662321 Eh   |
          | TOTAL ENTHALPY            -10.215439250761 Eh   |
          | TOTAL FREE ENERGY         -10.215969086852 Eh   |
          | GRADIENT NORM               0.000616483552 Eh/Î± |
          | HOMO-LUMO GAP               0.908524530077 eV   |
           -------------------------------------------------

 * finished run on 2020/05/12 at 11:44:36.235
