   * xtb version 6.2.2 (9d81278992624c895f80dd42a50cac0aa55982e2) compiled by '@Darwin' on 04/03/2020
          program call               : xtb --input C4N1_12_S_1.input C4N1_12_S_1.xyz --ohess --molden --namespace C4N1_12_S_1 output.out
          number of atoms            :                     5
          number of electrons        :                    21
          charge                     :                     0
          spin                       :                   0.5

   ID    Z sym.   atoms
    1    7 N      1
    2    6 C      2-5

          :  Hamiltonian                  GFN2-xTB          :
 * total energy  :   -10.9101252 Eh     change       -0.8878818E-09 Eh
 * total energy  :   -11.0231839 Eh     change       -0.1130587E+00 Eh
 * total energy  :   -11.0199619 Eh     change        0.3222054E-02 Eh
 * total energy  :   -11.0849411 Eh     change       -0.6497919E-01 Eh
 * total energy  :   -11.0954908 Eh     change       -0.1054978E-01 Eh
 * total energy  :   -11.1059875 Eh     change       -0.1049668E-01 Eh
 * total energy  :   -11.1275064 Eh     change       -0.2151891E-01 Eh
 * total energy  :   -11.1429011 Eh     change       -0.1539467E-01 Eh
 * total energy  :   -11.1460277 Eh     change       -0.3126582E-02 Eh
 * total energy  :   -11.1511259 Eh     change       -0.5098197E-02 Eh
 * total energy  :   -11.1828109 Eh     change       -0.5003253E-03 Eh
 * total energy  :   -11.1829288 Eh     change       -0.1178781E-03 Eh
 * total energy  :   -11.1830613 Eh     change       -0.1324590E-03 Eh
 * total energy  :   -11.1831286 Eh     change       -0.6733688E-04 Eh
 * total energy  :   -11.1831504 Eh     change       -0.2176601E-04 Eh
 * total energy  :   -11.1831670 Eh     change       -0.1666295E-04 Eh
 * total energy  :   -11.1831778 Eh     change       -0.1071616E-04 Eh
 * total energy  :   -11.1831831 Eh     change       -0.5308401E-05 Eh
 * total energy  :   -11.1831857 Eh     change       -0.2605200E-05 Eh
   *** GEOMETRY OPTIMIZATION CONVERGED AFTER 33 ITERATIONS ***

 final structure:
================
5
 xtb: 6.2.2 (9d81278992624c895f80dd42a50cac0aa55982e2)
N        -2.49106413418752   -0.02521381556800   -0.12025507612881
C        -1.33002377192111   -0.01686093918559   -0.06334394634355
C         1.26344689417116    0.01734769731078    0.06081396080065
C        -0.00148030778356   -0.00323872972060   -0.00024513967040
C         2.55912031972104    0.02796478716342    0.12302920134210

          :  Hamiltonian                  GFN2-xTB          :
         :: gradient norm              0.000958172270 Eh/a0 ::
         :: HOMO-LUMO gap              0.000011806377 eV    ::
         :: SCC energy               -11.457284925813 Eh    ::
         :: -> dispersion             -0.002572413198 Eh    ::
         :: repulsion energy           0.274100462223 Eh    ::

    * Orbital Energies and Occupations

         #    Occupation            Energy/Eh            Energy/eV
      -------------------------------------------------------------
         1        2.0000           -0.6935776             -18.8732
         2        2.0000           -0.6875865             -18.7102
         3        2.0000           -0.6657924             -18.1171
         4        2.0000           -0.6190211             -16.8444
         5        2.0000           -0.5518206             -15.0158
         6        2.0000           -0.5518203             -15.0158
         7        2.0000           -0.4995312             -13.5929
         8        2.0000           -0.4995300             -13.5929
         9        2.0000           -0.4769144             -12.9775
        10        2.0000           -0.4550283             -12.3820
        11        0.5001           -0.4009575             -10.9106 (HOMO)
        12        0.4999           -0.4009570             -10.9106 (LUMO)
        13                         -0.2575865              -7.0093
        14                         -0.2575824              -7.0092
        15                         -0.1247312              -3.3941
        16                         -0.1247220              -3.3939
        17                          0.0594411               1.6175
        18                          0.4390450              11.9470
        19                          0.9991952              27.1895
        20                          1.4169310              38.5567
      -------------------------------------------------------------
                  HL-Gap            0.0000004 Eh            0.0000 eV

     #   Z        covCN         q      C6AA      Î±(0)
     1   7 N      0.912    -0.156    24.362     7.138
     2   6 C      1.892     0.140    27.712     8.502
     3   6 C      1.962     0.068    29.354     8.749
     4   6 C      1.964     0.058    29.604     8.787
     5   6 C      0.982    -0.110    39.436    10.548

Wiberg/Mayer (AO) data.
largest (>0.10) Wiberg bond orders for each atom
          total WBO             WBO to atom ...

molecular dipole:
                 x           y           z       tot (Debye)
 q only:        0.012      -0.001       0.001
   full:       -0.053      -0.003      -0.002       0.134

 projected vibrational frequencies (cm-1)
eigval :       -0.00    -0.00    -0.00    -0.00     0.00     0.00
eigval :      111.76   142.92   270.58   460.86   465.53   782.22
eigval :     1511.48  1957.66  2179.44

   temp. (K)  partition function   enthalpy   heat capacity  entropy
                                   cal/mol     cal/K/mol   cal/K/mol   J/K/mol
  10.00  VIB   1.00                    0.000      0.000     -0.040
         ROT   1.94                   29.809      2.981      4.297
         INT   1.94                   29.809      2.981      4.258
         TR   0.290E+25               49.681      4.968     21.419
         TOT                          79.4904     7.9491    25.6770   107.4325

       T/K    H(0)-H(T)+PV         H(T)/Eh          T*S/Eh         G(T)/Eh
   ------------------------------------------------------------------------
    298.15    0.619817E-02    0.241557E-01    0.294666E-01   -0.531085E-02
    120.00    0.191067E-02    0.198682E-01    0.929713E-02    0.105711E-01
    100.00    0.152092E-02    0.194785E-01    0.739367E-02    0.120848E-01
     80.00    0.115674E-02    0.191143E-01    0.559108E-02    0.135232E-01
     60.00    0.821343E-03    0.187789E-01    0.390484E-02    0.148741E-01
     40.00    0.519921E-03    0.184775E-01    0.235954E-02    0.161179E-01
     20.00    0.253539E-03    0.182111E-01    0.995337E-03    0.172158E-01
     10.00    0.126676E-03    0.180842E-01    0.409189E-03    0.176750E-01 (used)
   ------------------------------------------------------------------------

         :::::::::::::::::::::::::::::::::::::::::::::::::::::
         ::                  THERMODYNAMIC                  ::
         :::::::::::::::::::::::::::::::::::::::::::::::::::::
         :: total free energy         -11.165510635050 Eh   ::
         ::.................................................::
         :: total energy              -11.183185676148 Eh   ::
         :: zero point energy           0.017957553692 Eh   ::
         :: G(RRHO) w/o ZPVE           -0.000282512595 Eh   ::
         :: G(RRHO) contrib.            0.017675041097 Eh   ::
         :::::::::::::::::::::::::::::::::::::::::::::::::::::

           -------------------------------------------------
          | TOTAL ENERGY              -11.183185676148 Eh   |
          | TOTAL ENTHALPY            -11.165101446386 Eh   |
          | TOTAL FREE ENERGY         -11.165510635050 Eh   |
          | GRADIENT NORM               0.000957235794 Eh/Î± |
          | HOMO-LUMO GAP               0.000011782075 eV   |
           -------------------------------------------------

 * finished run on 2020/05/12 at 11:44:02.996
