   * xtb version 6.2.2 (9d81278992624c895f80dd42a50cac0aa55982e2) compiled by '@Darwin' on 04/03/2020
          program call               : xtb --input H2C1O2_0_S_2.input H2C1O2_0_S_2.xyz --ohess --molden --namespace H2C1O2_0_S_2 output.out
          number of atoms            :                     5
          number of electrons        :                    18
          charge                     :                     0
          spin                       :                   1.0

   ID    Z sym.   atoms
    1    6 C      1
    2    8 O      2, 3
    3    1 H      4, 5

          :  Hamiltonian                  GFN2-xTB          :
 * total energy  :   -11.0764374 Eh     change       -0.1400542E-08 Eh
 * total energy  :   -11.0862454 Eh     change       -0.9808069E-02 Eh
 * total energy  :   -11.0892312 Eh     change       -0.2985744E-02 Eh
 * total energy  :   -11.0896367 Eh     change       -0.4055578E-03 Eh
 * total energy  :   -11.0896722 Eh     change       -0.3544474E-04 Eh
 * total energy  :   -11.0896753 Eh     change       -0.3122903E-05 Eh
   *** GEOMETRY OPTIMIZATION CONVERGED AFTER 6 ITERATIONS ***

 final structure:
================
5
 xtb: 6.2.2 (9d81278992624c895f80dd42a50cac0aa55982e2)
C        -0.00191835774161   -0.01951011651497    0.00225824059303
O         1.10348254323561    0.65194195265584   -0.17067088066296
O        -0.95348703274489    0.87330237866919   -0.00587207242527
H         0.00421039041644   -0.66168928852347    0.94135174290312
H        -0.15228754316554   -0.84404392628658   -0.76706703040793

          :  Hamiltonian                  GFN2-xTB          :
         :: gradient norm              0.000563276053 Eh/a0 ::
         :: HOMO-LUMO gap             13.561820449864 eV    ::
         :: SCC energy               -11.147198315203 Eh    ::
         :: -> dispersion             -0.001133133502 Eh    ::
         :: repulsion energy           0.057522990598 Eh    ::

    * Orbital Energies and Occupations

         #    Occupation            Energy/Eh            Energy/eV
      -------------------------------------------------------------
         1        2.0000           -0.7641445             -20.7934
         2        2.0000           -0.7329821             -19.9455
         3        2.0000           -0.6674800             -18.1631
         4        2.0000           -0.6226812             -16.9440
         5        2.0000           -0.6078649             -16.5408
         6        2.0000           -0.5878859             -15.9972
         7        2.0000           -0.4946067             -13.4589
         8        2.0000           -0.4869838             -13.2515
         9        1.0000           -0.4572681             -12.4429
        10        1.0000           -0.4337086             -11.8018 (HOMO)
        11                          0.0646792               1.7600 (LUMO)
        12                          0.0773179               2.1039
        13                          0.1934538               5.2641
        14                          0.3059867               8.3263
      -------------------------------------------------------------
                  HL-Gap            0.4983877 Eh           13.5618 eV

     #   Z        covCN         q      C6AA      Î±(0)
     1   6 C      3.541     0.278    17.265     6.089
     2   8 O      0.861    -0.280    19.417     5.908
     3   8 O      0.861    -0.280    19.417     5.908
     4   1 H      0.916     0.141     1.457     1.888
     5   1 H      0.916     0.141     1.457     1.888

Wiberg/Mayer (AO) data.
largest (>0.10) Wiberg bond orders for each atom
          total WBO             WBO to atom ...

molecular dipole:
                 x           y           z       tot (Debye)
 q only:       -0.120      -1.217       0.141
   full:       -0.148      -1.507       0.174       3.874

 projected vibrational frequencies (cm-1)
eigval :       -0.00    -0.00     0.00     0.00     0.00     0.00
eigval :      515.15   733.63  1013.28  1155.50  1181.33  1214.63
eigval :     1286.78  2350.20  2483.11

   temp. (K)  partition function   enthalpy   heat capacity  entropy
                                   cal/mol     cal/K/mol   cal/K/mol   J/K/mol
  10.00  VIB   1.00                    0.000      0.000     -0.000
         ROT   29.7                   29.809      2.981      9.721
         INT   29.7                   29.809      2.981      9.720
         TR   0.186E+25               49.681      4.968     20.529
         TOT                          79.4904     7.9490    30.2498   126.5651

       T/K    H(0)-H(T)+PV         H(T)/Eh          T*S/Eh         G(T)/Eh
   ------------------------------------------------------------------------
    298.15    0.419073E-02    0.313775E-01    0.277336E-01    0.364391E-02
    120.00    0.152554E-02    0.287123E-01    0.956725E-02    0.191450E-01
    100.00    0.126827E-02    0.284550E-01    0.773830E-02    0.207167E-01
     80.00    0.101364E-02    0.282004E-01    0.596345E-02    0.222369E-01
     60.00    0.760066E-03    0.279468E-01    0.425382E-02    0.236930E-01
     40.00    0.506704E-03    0.276935E-01    0.263048E-02    0.250630E-01
     20.00    0.253352E-03    0.274401E-01    0.113968E-02    0.263004E-01
     10.00    0.126676E-03    0.273134E-01    0.482061E-03    0.268314E-01 (used)
   ------------------------------------------------------------------------

         :::::::::::::::::::::::::::::::::::::::::::::::::::::
         ::                  THERMODYNAMIC                  ::
         :::::::::::::::::::::::::::::::::::::::::::::::::::::
         :: total free energy         -11.062843933513 Eh   ::
         ::.................................................::
         :: total energy              -11.089675299548 Eh   ::
         :: zero point energy           0.027186750841 Eh   ::
         :: G(RRHO) w/o ZPVE           -0.000355384807 Eh   ::
         :: G(RRHO) contrib.            0.026831366034 Eh   ::
         :::::::::::::::::::::::::::::::::::::::::::::::::::::

           -------------------------------------------------
          | TOTAL ENERGY              -11.089675299548 Eh   |
          | TOTAL ENTHALPY            -11.062361872691 Eh   |
          | TOTAL FREE ENERGY         -11.062843933513 Eh   |
          | GRADIENT NORM               0.000563272404 Eh/Î± |
          | HOMO-LUMO GAP              13.561820493883 eV   |
           -------------------------------------------------

 * finished run on 2020/05/12 at 11:43:52.130
