   * xtb version 6.2.2 (9d81278992624c895f80dd42a50cac0aa55982e2) compiled by '@Darwin' on 04/03/2020
          program call               : xtb --input C2_0_S_0.input C2_0_S_0.xyz --ohess --molden --namespace C2_0_S_0 output.out
          number of atoms            :                     2
          number of electrons        :                     8
          charge                     :                     0
          spin                       :                   0.0

   ID    Z sym.   atoms
    1    6 C      1, 2

          :  Hamiltonian                  GFN2-xTB          :
 * total energy  :    -3.9034995 Eh     change       -0.3108624E-14 Eh
 * total energy  :    -4.0411852 Eh     change       -0.1376856E+00 Eh
 * total energy  :    -4.0134364 Eh     change        0.2774878E-01 Eh
 * total energy  :    -4.0454028 Eh     change       -0.3196638E-01 Eh
 * total energy  :    -4.0456641 Eh     change       -0.2613262E-03 Eh
 * total energy  :    -4.0456892 Eh     change       -0.2516804E-04 Eh
 * total energy  :    -4.0456893 Eh     change       -0.2555207E-07 Eh
   *** GEOMETRY OPTIMIZATION CONVERGED AFTER 7 ITERATIONS ***

 final structure:
================
2
 xtb: 6.2.2 (9d81278992624c895f80dd42a50cac0aa55982e2)
C         0.58037936760828    0.00000000000000    0.00000000000000
C        -0.58037936760828    0.00000000000000    0.00000000000000

          :  Hamiltonian                  GFN2-xTB          :
         :: gradient norm              0.000218503563 Eh/a0 ::
         :: HOMO-LUMO gap              3.071822705477 eV    ::
         :: SCC energy                -4.187414723095 Eh    ::
         :: -> dispersion             -0.000365153358 Eh    ::
         :: repulsion energy           0.141725448638 Eh    ::

    * Orbital Energies and Occupations

         #    Occupation            Energy/Eh            Energy/eV
      -------------------------------------------------------------
         1        2.0000           -0.6692481             -18.2112
         2        2.0000           -0.5105917             -13.8939
         3        2.0000           -0.4855580             -13.2127
         4        2.0000           -0.4855580             -13.2127 (HOMO)
         5                         -0.3726706             -10.1409 (LUMO)
         6                         -0.1978085              -5.3826
         7                         -0.1978085              -5.3826
Molecule has the following symmetry elements: (i) (Cinf) (C2) 2*(sigma)
It seems to be the Dinfh point group
         8                          1.1595343              31.5525
      -------------------------------------------------------------
                  HL-Gap            0.1128874 Eh            3.0718 eV

     #   Z        covCN         q      C6AA      Î±(0)
     1   6 C      0.981     0.000    35.905    10.065
     2   6 C      0.981    -0.000    35.905    10.065

Wiberg/Mayer (AO) data.
largest (>0.10) Wiberg bond orders for each atom
          total WBO             WBO to atom ...

molecular dipole:
                 x           y           z       tot (Debye)
 q only:        0.000      -0.000      -0.000
   full:        0.000       0.000      -0.000       0.000

   temp. (K)  partition function   enthalpy   heat capacity  entropy
                                   cal/mol     cal/K/mol   cal/K/mol   J/K/mol
  10.00  VIB   1.00                    0.000      0.000     -0.000
         ROT   1.67                   19.873      1.987      3.004
         INT   1.67                   19.873      1.987      3.004
         TR   0.700E+24               49.681      4.968     18.592
         TOT                          69.5541     6.9554    21.5960    90.3576

       T/K    H(0)-H(T)+PV         H(T)/Eh          T*S/Eh         G(T)/Eh
   ------------------------------------------------------------------------
    298.15    0.330485E-02    0.872726E-02    0.214768E-01   -0.127495E-01
    120.00    0.133010E-02    0.675250E-02    0.743386E-02   -0.681359E-03
    100.00    0.110842E-02    0.653082E-02    0.599287E-02    0.537952E-03
     80.00    0.886732E-03    0.630914E-02    0.459650E-02    0.171264E-02
     60.00    0.665049E-03    0.608746E-02    0.325612E-02    0.283134E-02
     40.00    0.443366E-03    0.586577E-02    0.199104E-02    0.387474E-02
     20.00    0.221683E-03    0.564409E-02    0.841913E-03    0.480218E-02
     10.00    0.110842E-03    0.553325E-02    0.344154E-03    0.518909E-02 (used)
   ------------------------------------------------------------------------

         :::::::::::::::::::::::::::::::::::::::::::::::::::::
         ::                  THERMODYNAMIC                  ::
         :::::::::::::::::::::::::::::::::::::::::::::::::::::
         :: total free energy          -4.040500180349 Eh   ::
         ::.................................................::
         :: total energy               -4.045689274457 Eh   ::
         :: zero point energy           0.005422406559 Eh   ::
         :: G(RRHO) w/o ZPVE           -0.000233312451 Eh   ::
         :: G(RRHO) contrib.            0.005189094108 Eh   ::
         :::::::::::::::::::::::::::::::::::::::::::::::::::::

           -------------------------------------------------
          | TOTAL ENERGY               -4.045689274457 Eh   |
          | TOTAL ENTHALPY             -4.040156026384 Eh   |
          | TOTAL FREE ENERGY          -4.040500180349 Eh   |
          | GRADIENT NORM               0.000218503698 Eh/Î± |
          | HOMO-LUMO GAP               3.071822706426 eV   |
           -------------------------------------------------

 * finished run on 2020/05/13 at 16:22:17.759
