   * xtb version 6.2.2 (9d81278992624c895f80dd42a50cac0aa55982e2) compiled by '@Darwin' on 04/03/2020
          program call               : xtb --input C1N1_0_S_3.input C1N1_0_S_3.xyz --ohess --molden --namespace C1N1_0_S_3 output.out
          number of atoms            :                     2
          number of electrons        :                     9
          charge                     :                     0
          spin                       :                   1.5

   ID    Z sym.   atoms
    1    6 C      1
    2    7 N      2

          :  Hamiltonian                  GFN2-xTB          :
 * total energy  :    -4.6352851 Eh     change        0.1891820E-12 Eh
 * total energy  :    -4.6551516 Eh     change       -0.1986648E-01 Eh
 * total energy  :    -4.6556293 Eh     change       -0.4777213E-03 Eh
 * total energy  :    -4.6564236 Eh     change       -0.7943252E-03 Eh
 * total energy  :    -4.6564335 Eh     change       -0.9907896E-05 Eh
 * total energy  :    -4.6564336 Eh     change       -0.5012976E-07 Eh
   *** GEOMETRY OPTIMIZATION CONVERGED AFTER 6 ITERATIONS ***

 final structure:
================
2
 xtb: 6.2.2 (9d81278992624c895f80dd42a50cac0aa55982e2)
C         0.64675023241775    0.00000000000000    0.00000000000000
N        -0.64675023241775    0.00000000000000    0.00000000000000

          :  Hamiltonian                  GFN2-xTB          :
         :: gradient norm              0.000220984714 Eh/a0 ::
         :: HOMO-LUMO gap              0.000000000025 eV    ::
         :: SCC energy                -4.692162246033 Eh    ::
         :: -> dispersion             -0.000304059274 Eh    ::
         :: repulsion energy           0.035728680094 Eh    ::

    * Orbital Energies and Occupations

         #    Occupation            Energy/Eh            Energy/eV
      -------------------------------------------------------------
         1        2.0000           -0.6903033             -18.7841
         2        2.0000           -0.5619083             -15.2903
         3        1.5000           -0.5214822             -14.1903
         4        1.5000           -0.5214822             -14.1903
         5        1.0000           -0.4553598             -12.3910
         6        0.5000           -0.3148376              -8.5672 (HOMO)
         7        0.5000           -0.3148376              -8.5672 (LUMO)
         8                          0.3236717               8.8076
Molecule has the following symmetry elements: (Cinf) (sigma)
It seems to be the Cinfv point group
      -------------------------------------------------------------
                  HL-Gap            0.0000000 Eh            0.0000 eV

     #   Z        covCN         q      C6AA      Î±(0)
     1   6 C      0.910     0.014    35.030     9.905
     2   7 N      0.910    -0.014    21.522     6.710

Wiberg/Mayer (AO) data.
largest (>0.10) Wiberg bond orders for each atom
          total WBO             WBO to atom ...

molecular dipole:
                 x           y           z       tot (Debye)
 q only:        0.033      -0.000      -0.000
   full:        0.142      -0.000      -0.000       0.362

   temp. (K)  partition function   enthalpy   heat capacity  entropy
                                   cal/mol     cal/K/mol   cal/K/mol   J/K/mol
  10.00  VIB   1.00                    0.000      0.000     -0.000
         ROT   4.46                   19.873      1.987      4.959
         INT   4.46                   19.873      1.987      4.959
         TR   0.789E+24               49.681      4.968     18.830
         TOT                          69.5541     6.9554    23.7885    99.5311

       T/K    H(0)-H(T)+PV         H(T)/Eh          T*S/Eh         G(T)/Eh
   ------------------------------------------------------------------------
    298.15    0.330725E-02    0.708958E-02    0.225212E-01   -0.154316E-01
    120.00    0.133010E-02    0.511243E-02    0.785315E-02   -0.274071E-02
    100.00    0.110842E-02    0.489075E-02    0.634227E-02   -0.145152E-02
     80.00    0.886732E-03    0.466907E-02    0.487602E-02   -0.206951E-03
     60.00    0.665049E-03    0.444738E-02    0.346576E-02    0.981626E-03
     40.00    0.443366E-03    0.422570E-02    0.213080E-02    0.209490E-02
     20.00    0.221683E-03    0.400402E-02    0.911793E-03    0.309222E-02
     10.00    0.110842E-03    0.389318E-02    0.379094E-03    0.351408E-02 (used)
   ------------------------------------------------------------------------

         :::::::::::::::::::::::::::::::::::::::::::::::::::::
         ::                  THERMODYNAMIC                  ::
         :::::::::::::::::::::::::::::::::::::::::::::::::::::
         :: total free energy          -4.652919484707 Eh   ::
         ::.................................................::
         :: total energy               -4.656433565938 Eh   ::
         :: zero point energy           0.003782333736 Eh   ::
         :: G(RRHO) w/o ZPVE           -0.000268252505 Eh   ::
         :: G(RRHO) contrib.            0.003514081231 Eh   ::
         :::::::::::::::::::::::::::::::::::::::::::::::::::::

           -------------------------------------------------
          | TOTAL ENERGY               -4.656433565938 Eh   |
          | TOTAL ENTHALPY             -4.652540390688 Eh   |
          | TOTAL FREE ENERGY          -4.652919484707 Eh   |
          | GRADIENT NORM               0.000221064060 Eh/Î± |
          | HOMO-LUMO GAP               0.000000000578 eV   |
           -------------------------------------------------

 * finished run on 2020/05/12 at 11:43:54.312
