   * xtb version 6.2.2 (9d81278992624c895f80dd42a50cac0aa55982e2) compiled by '@Darwin' on 04/03/2020
          program call               : xtb --input H1C3N1_12_S_2.input H1C3N1_12_S_2.xyz --ohess --molden --namespace H1C3N1_12_S_2 output.out
          number of atoms            :                     5
          number of electrons        :                    18
          charge                     :                     0
          spin                       :                   1.0

   ID    Z sym.   atoms
    1    6 C      1, 3, 4
    2    7 N      2
    3    1 H      5

          :  Hamiltonian                  GFN2-xTB          :
 * total energy  :    -9.3966536 Eh     change       -0.2056915E-09 Eh
 * total energy  :    -9.4906227 Eh     change       -0.9396909E-01 Eh
 * total energy  :    -9.5089966 Eh     change       -0.1837399E-01 Eh
 * total energy  :    -9.5424329 Eh     change       -0.3343620E-01 Eh
 * total energy  :    -9.5442930 Eh     change       -0.1860165E-02 Eh
 * total energy  :    -9.5478465 Eh     change       -0.3553526E-02 Eh
 * total energy  :    -9.5465040 Eh     change        0.1342561E-02 Eh
 * total energy  :    -9.5495564 Eh     change       -0.3052442E-02 Eh
 * total energy  :    -9.5495218 Eh     change        0.3459734E-04 Eh
 * total energy  :    -9.5504845 Eh     change       -0.9627141E-03 Eh
 * total energy  :    -9.5505404 Eh     change       -0.5588199E-04 Eh
 * total energy  :    -9.5506334 Eh     change       -0.9302140E-04 Eh
 * total energy  :    -9.5507043 Eh     change       -0.7083822E-04 Eh
 * total energy  :    -9.5507681 Eh     change       -0.6383931E-04 Eh
 * total energy  :    -9.5508319 Eh     change       -0.6379414E-04 Eh
 * total energy  :    -9.5508700 Eh     change       -0.3804882E-04 Eh
 * total energy  :    -9.5508908 Eh     change       -0.2079974E-04 Eh
 * total energy  :    -9.5508976 Eh     change       -0.6787746E-05 Eh
 * total energy  :    -9.5508985 Eh     change       -0.9781537E-06 Eh
   *** GEOMETRY OPTIMIZATION CONVERGED AFTER 19 ITERATIONS ***

 final structure:
================
5
 xtb: 6.2.2 (9d81278992624c895f80dd42a50cac0aa55982e2)
C         2.07723468371024   -0.57632050765784    0.86895258042917
N         1.03165638716331   -0.38253173545628    0.28715131589864
C        -0.09206027398949    0.21301346750265    0.24262541346218
C        -1.21642910344498    0.49716746687224   -0.26948984200887
H        -1.80040169343908    0.24867130873923   -1.12923946778112

          :  Hamiltonian                  GFN2-xTB          :
         :: gradient norm              0.000349751091 Eh/a0 ::
         :: HOMO-LUMO gap              0.920463268551 eV    ::
         :: SCC energy                -9.749013878688 Eh    ::
         :: -> dispersion             -0.002102044143 Eh    ::
         :: repulsion energy           0.198115649110 Eh    ::

    * Orbital Energies and Occupations

         #    Occupation            Energy/Eh            Energy/eV
      -------------------------------------------------------------
         1        2.0000           -0.6865197             -18.6812
         2        2.0000           -0.6551476             -17.8275
         3        2.0000           -0.6150067             -16.7352
         4        2.0000           -0.5481660             -14.9164
         5        2.0000           -0.5413224             -14.7301
         6        2.0000           -0.5245645             -14.2741
         7        2.0000           -0.4526014             -12.3159
         8        2.0000           -0.4324486             -11.7675
         9        1.0000           -0.4121814             -11.2160
        10        1.0000           -0.3153958              -8.5824 (HOMO)
        11                         -0.2815694              -7.6619 (LUMO)
        12                         -0.2015880              -5.4855
        13                         -0.1457133              -3.9651
        14                          0.1377637               3.7487
        15                          0.2540230               6.9123
        16                          0.7400742              20.1384
        17                          1.0672902              29.0424
      -------------------------------------------------------------
                  HL-Gap            0.0338264 Eh            0.9205 eV

     #   Z        covCN         q      C6AA      Î±(0)
     1   6 C      0.929    -0.117    39.284    10.499
     2   7 N      1.823     0.054    20.948     6.782
     3   6 C      1.910     0.055    29.713     8.803
     4   6 C      1.909    -0.086    33.462     9.342
     5   1 H      0.927     0.094     1.845     2.124

Wiberg/Mayer (AO) data.
largest (>0.10) Wiberg bond orders for each atom
          total WBO             WBO to atom ...

molecular dipole:
                 x           y           z       tot (Debye)
 q only:       -0.483       0.073      -0.293
   full:       -0.703       0.059      -0.498       2.195

 projected vibrational frequencies (cm-1)
eigval :       -0.00    -0.00    -0.00    -0.00     0.00     0.00
eigval :      153.17   201.31   436.97   476.83   649.42  1053.53
eigval :     1725.27  1912.89  3105.49

   temp. (K)  partition function   enthalpy   heat capacity  entropy
                                   cal/mol     cal/K/mol   cal/K/mol   J/K/mol
  10.00  VIB   1.00                    0.000      0.000     -0.016
         ROT   59.2                   29.809      2.981     11.090
         INT   59.2                   29.809      2.981     11.074
         TR   0.217E+25               49.681      4.968     20.838
         TOT                          79.4904     7.9490    31.9116   133.5181

       T/K    H(0)-H(T)+PV         H(T)/Eh          T*S/Eh         G(T)/Eh
   ------------------------------------------------------------------------
    298.15    0.565773E-02    0.277899E-01    0.312004E-01   -0.341052E-02
    120.00    0.176161E-02    0.238937E-01    0.102298E-01    0.136640E-01
    100.00    0.141322E-02    0.235454E-01    0.820774E-02    0.153376E-01
     80.00    0.108726E-02    0.232194E-01    0.627576E-02    0.169436E-01
     60.00    0.785729E-03    0.229179E-01    0.444710E-02    0.184708E-01
     40.00    0.510199E-03    0.226423E-01    0.274181E-02    0.199005E-01
     20.00    0.253364E-03    0.223855E-01    0.119299E-02    0.211925E-01
     10.00    0.126676E-03    0.222588E-01    0.508543E-03    0.217503E-01 (used)
   ------------------------------------------------------------------------

         :::::::::::::::::::::::::::::::::::::::::::::::::::::
         ::                  THERMODYNAMIC                  ::
         :::::::::::::::::::::::::::::::::::::::::::::::::::::
         :: total free energy          -9.529148260617 Eh   ::
         ::.................................................::
         :: total energy               -9.550898530240 Eh   ::
         :: zero point energy           0.022132137037 Eh   ::
         :: G(RRHO) w/o ZPVE           -0.000381867414 Eh   ::
         :: G(RRHO) contrib.            0.021750269623 Eh   ::
         :::::::::::::::::::::::::::::::::::::::::::::::::::::

           -------------------------------------------------
          | TOTAL ENERGY               -9.550898530240 Eh   |
          | TOTAL ENTHALPY             -9.528639717187 Eh   |
          | TOTAL FREE ENERGY          -9.529148260617 Eh   |
          | GRADIENT NORM               0.000350327084 Eh/Î± |
          | HOMO-LUMO GAP               0.920462960726 eV   |
           -------------------------------------------------

 * finished run on 2020/05/12 at 11:44:55.169
