   * xtb version 6.2.2 (9d81278992624c895f80dd42a50cac0aa55982e2) compiled by '@Darwin' on 04/03/2020
          program call               : xtb --input C5_10_S_0.input C5_10_S_0.xyz --ohess --molden --namespace C5_10_S_0 output.out
          number of atoms            :                     5
          number of electrons        :                    20
          charge                     :                     0
          spin                       :                   0.0

   ID    Z sym.   atoms
    1    6 C      1-5

          :  Hamiltonian                  GFN2-xTB          :
 * total energy  :   -10.1470854 Eh     change       -0.1823608E-10 Eh
 * total energy  :   -10.1906666 Eh     change       -0.4358125E-01 Eh
 * total energy  :   -10.2034226 Eh     change       -0.1275599E-01 Eh
 * total energy  :   -10.2104104 Eh     change       -0.6987770E-02 Eh
 * total energy  :   -10.2115431 Eh     change       -0.1132720E-02 Eh
 * total energy  :   -10.2120512 Eh     change       -0.5080853E-03 Eh
 * total energy  :   -10.2122898 Eh     change       -0.2386369E-03 Eh
 * total energy  :   -10.2126888 Eh     change       -0.3989082E-03 Eh
 * total energy  :   -10.2127207 Eh     change       -0.3197777E-04 Eh
 * total energy  :   -10.2127505 Eh     change       -0.2973129E-04 Eh
 * total energy  :   -10.2127513 Eh     change       -0.7959410E-06 Eh
 * total energy  :   -10.2127583 Eh     change       -0.7084349E-05 Eh
 * total energy  :   -10.2127622 Eh     change       -0.3856988E-05 Eh
   *** GEOMETRY OPTIMIZATION CONVERGED AFTER 13 ITERATIONS ***

 final structure:
================
5
 xtb: 6.2.2 (9d81278992624c895f80dd42a50cac0aa55982e2)
C        -1.09112838800657    0.70416037216991    0.04547601833881
C         0.38655169134332    0.72499854612633   -0.10642343504711
C         0.33338490063424   -0.74910112776015   -0.11563114554568
C         1.51162896821030   -0.05457946494656    0.14028454628894
C        -1.14043617218130   -0.62547932558952    0.03629301596504

          :  Hamiltonian                  GFN2-xTB          :
         :: gradient norm              0.000623589743 Eh/a0 ::
         :: HOMO-LUMO gap              1.022005763875 eV    ::
         :: SCC energy               -10.384688797116 Eh    ::
         :: -> dispersion             -0.002815247999 Eh    ::
         :: repulsion energy           0.171926575384 Eh    ::

    * Orbital Energies and Occupations

         #    Occupation            Energy/Eh            Energy/eV
      -------------------------------------------------------------
         1        2.0000           -0.7443145             -20.2538
         2        2.0000           -0.6895314             -18.7631
         3        2.0000           -0.6268136             -17.0565
         4        2.0000           -0.5843853             -15.9019
         5        2.0000           -0.5634550             -15.3324
         6        2.0000           -0.5522755             -15.0282
         7        2.0000           -0.4953780             -13.4799
         8        2.0000           -0.4528859             -12.3237
         9        2.0000           -0.4334437             -11.7946
        10        2.0000           -0.4234230             -11.5219 (HOMO)
        11                         -0.3858650             -10.4999 (LUMO)
        12                         -0.3850962             -10.4790
        13                         -0.2702384              -7.3536
        14                         -0.2315135              -6.2998
        15                         -0.1695852              -4.6146
        16                         -0.0332377              -0.9044
        17                          0.1929927               5.2516
        18                          0.2810179               7.6469
        19                          0.4988095              13.5733
        20                          0.5514210              15.0049
      -------------------------------------------------------------
                  HL-Gap            0.0375580 Eh            1.0220 eV

     #   Z        covCN         q      C6AA      Î±(0)
     1   6 C      2.364    -0.032    29.806     8.885
     2   6 C      3.337     0.100    23.478     7.670
     3   6 C      3.341     0.100    23.400     7.646
     4   6 C      1.961    -0.135    34.883     9.538
     5   6 C      2.359    -0.033    29.874     8.893

Wiberg/Mayer (AO) data.
largest (>0.10) Wiberg bond orders for each atom
          total WBO             WBO to atom ...

molecular dipole:
                 x           y           z       tot (Debye)
 q only:       -0.114       0.006      -0.083
   full:       -0.180       0.014      -0.207       0.698

 projected vibrational frequencies (cm-1)
eigval :       -0.00    -0.00    -0.00     0.00     0.00     0.00
eigval :     -581.28   108.19   331.69   596.59   819.16   995.75
eigval :      999.56  1491.53  1553.69

   temp. (K)  partition function   enthalpy   heat capacity  entropy
                                   cal/mol     cal/K/mol   cal/K/mol   J/K/mol
  10.00  VIB   1.00                    0.000      0.000     -0.027
         ROT   166.                   29.809      2.981     13.138
         INT   166.                   29.809      2.981     13.111
         TR   0.277E+25               49.681      4.968     21.322
         TOT                          79.4905     7.9491    34.4328   144.0669

       T/K    H(0)-H(T)+PV         H(T)/Eh          T*S/Eh         G(T)/Eh
   ------------------------------------------------------------------------
    298.15    0.519623E-02    0.209068E-01    0.317520E-01   -0.108451E-01
    120.00    0.173677E-02    0.174474E-01    0.107138E-01    0.673354E-02
    100.00    0.141192E-02    0.171225E-01    0.863316E-02    0.848936E-02
     80.00    0.109954E-02    0.168101E-01    0.662866E-02    0.101815E-01
     60.00    0.800386E-03    0.165110E-01    0.471405E-02    0.117969E-01
     40.00    0.516988E-03    0.162276E-01    0.291333E-02    0.133143E-01
     20.00    0.253558E-03    0.159642E-01    0.127419E-02    0.146900E-01
     10.00    0.126676E-03    0.158373E-01    0.548722E-03    0.152886E-01 (used)
   ------------------------------------------------------------------------

         :::::::::::::::::::::::::::::::::::::::::::::::::::::
         ::                  THERMODYNAMIC                  ::
         :::::::::::::::::::::::::::::::::::::::::::::::::::::
         :: total free energy         -10.197473646872 Eh   ::
         ::.................................................::
         :: total energy              -10.212762198641 Eh   ::
         :: zero point energy           0.015710597475 Eh   ::
         :: G(RRHO) w/o ZPVE           -0.000422045705 Eh   ::
         :: G(RRHO) contrib.            0.015288551770 Eh   ::
         :::::::::::::::::::::::::::::::::::::::::::::::::::::

           -------------------------------------------------
          | TOTAL ENERGY              -10.212762198641 Eh   |
          | TOTAL ENTHALPY            -10.196924925065 Eh   |
          | TOTAL FREE ENERGY         -10.197473646872 Eh   |
          | GRADIENT NORM               0.000622752969 Eh/Î± |
          | HOMO-LUMO GAP               1.022004118927 eV   |
           -------------------------------------------------

 * finished run on 2020/05/12 at 11:44:35.793
