   * xtb version 6.2.2 (9d81278992624c895f80dd42a50cac0aa55982e2) compiled by '@Darwin' on 04/03/2020
          program call               : xtb --input H2C2N1_7_S_3.input H2C2N1_7_S_3.xyz --ohess --molden --namespace H2C2N1_7_S_3 output.out
          number of atoms            :                     5
          number of electrons        :                    15
          charge                     :                     0
          spin                       :                   1.5

   ID    Z sym.   atoms
    1    7 N      1
    2    6 C      2, 3
    3    1 H      4, 5

          :  Hamiltonian                  GFN2-xTB          :
 * total energy  :    -7.8099382 Eh     change       -0.5727285E-09 Eh
 * total energy  :    -7.8334921 Eh     change       -0.2355392E-01 Eh
 * total energy  :    -7.8569087 Eh     change       -0.2341658E-01 Eh
 * total energy  :    -7.8609604 Eh     change       -0.4051705E-02 Eh
 * total energy  :    -7.8639977 Eh     change       -0.3037316E-02 Eh
 * total energy  :    -7.8669015 Eh     change       -0.2903821E-02 Eh
 * total energy  :    -7.8690963 Eh     change       -0.2194765E-02 Eh
 * total energy  :    -7.8712798 Eh     change       -0.2183553E-02 Eh
 * total energy  :    -7.8744624 Eh     change       -0.3182571E-02 Eh
 * total energy  :    -7.8754646 Eh     change       -0.1002214E-02 Eh
 * total energy  :    -7.8773961 Eh     change       -0.1931469E-02 Eh
 * total energy  :    -7.8778175 Eh     change       -0.4214553E-03 Eh
 * total energy  :    -7.8782938 Eh     change       -0.4762987E-03 Eh
 * total energy  :    -7.8785129 Eh     change       -0.2191117E-03 Eh
 * total energy  :    -7.8786580 Eh     change       -0.1450675E-03 Eh
 * total energy  :    -7.8786597 Eh     change       -0.1729828E-05 Eh
   *** GEOMETRY OPTIMIZATION CONVERGED AFTER 16 ITERATIONS ***

 final structure:
================
5
 xtb: 6.2.2 (9d81278992624c895f80dd42a50cac0aa55982e2)
N        -0.42528976948275   -0.08767683011592   -0.00120731880860
C         0.84635025527634   -0.37341557079928   -0.09132268687812
C        -1.05306204637410    1.06842994016357    0.21088787096522
H        -1.03654487293450   -0.91473472977161   -0.11369584581641
H         1.66854643351501    0.30739719052324   -0.00466201946208

          :  Hamiltonian                  GFN2-xTB          :
         :: gradient norm              0.000785491222 Eh/a0 ::
         :: HOMO-LUMO gap              2.053631767842 eV    ::
         :: SCC energy                -7.972644256708 Eh    ::
         :: -> dispersion             -0.001576230749 Eh    ::
         :: repulsion energy           0.093984483714 Eh    ::

    * Orbital Energies and Occupations

         #    Occupation            Energy/Eh            Energy/eV
      -------------------------------------------------------------
         1        2.0000           -0.6791013             -18.4793
         2        2.0000           -0.6317872             -17.1918
         3        2.0000           -0.6019900             -16.3810
         4        2.0000           -0.5258709             -14.3097
         5        2.0000           -0.5252832             -14.2937
         6        2.0000           -0.4395977             -11.9621
         7        1.0000           -0.3650189              -9.9327
         8        1.0000           -0.3314048              -9.0180
         9        1.0000           -0.2947949              -8.0218 (HOMO)
        10                         -0.2193253              -5.9681 (LUMO)
        11                          0.0324564               0.8832
        12                          0.2073750               5.6430
        13                          0.2543920               6.9224
        14                          0.5065823              13.7848
      -------------------------------------------------------------
                  HL-Gap            0.0754696 Eh            2.0536 eV

     #   Z        covCN         q      C6AA      Î±(0)
     1   7 N      2.679     0.063    20.146     6.666
     2   6 C      1.853    -0.097    33.814     9.393
     3   6 C      0.926    -0.248    44.011    11.111
     4   1 H      0.859     0.196     1.125     1.661
     5   1 H      0.926     0.085     1.931     2.173

Wiberg/Mayer (AO) data.
largest (>0.10) Wiberg bond orders for each atom
          total WBO             WBO to atom ...

molecular dipole:
                 x           y           z       tot (Debye)
 q only:        0.170      -0.733      -0.125
   full:        0.297      -0.975      -0.168       2.625

 projected vibrational frequencies (cm-1)
eigval :       -0.00     0.00     0.00     0.00     0.00     0.00
eigval :      503.04   578.08   729.28   923.99  1144.01  1244.49
eigval :     1345.70  2983.76  3121.40

   temp. (K)  partition function   enthalpy   heat capacity  entropy
                                   cal/mol     cal/K/mol   cal/K/mol   J/K/mol
  10.00  VIB   1.00                    0.000      0.000     -0.000
         ROT   45.7                   29.809      2.981     10.575
         INT   45.7                   29.809      2.981     10.574
         TR   0.151E+25               49.681      4.968     20.115
         TOT                          79.4904     7.9490    30.6887   128.4015

       T/K    H(0)-H(T)+PV         H(T)/Eh          T*S/Eh         G(T)/Eh
   ------------------------------------------------------------------------
    298.15    0.436615E-02    0.330113E-01    0.281833E-01    0.482796E-02
    120.00    0.152881E-02    0.301739E-01    0.965499E-02    0.205189E-01
    100.00    0.126915E-02    0.299143E-01    0.780926E-02    0.221050E-01
     80.00    0.101377E-02    0.296589E-01    0.601957E-02    0.236393E-01
     60.00    0.760072E-03    0.294052E-01    0.429580E-02    0.251094E-01
     40.00    0.506704E-03    0.291518E-01    0.265847E-02    0.264934E-01
     20.00    0.253352E-03    0.288985E-01    0.115367E-02    0.277448E-01
     10.00    0.126676E-03    0.287718E-01    0.489055E-03    0.282827E-01 (used)
   ------------------------------------------------------------------------

         :::::::::::::::::::::::::::::::::::::::::::::::::::::
         ::                  THERMODYNAMIC                  ::
         :::::::::::::::::::::::::::::::::::::::::::::::::::::
         :: total free energy          -7.850376982747 Eh   ::
         ::.................................................::
         :: total energy               -7.878659732602 Eh   ::
         :: zero point energy           0.028645129316 Eh   ::
         :: G(RRHO) w/o ZPVE           -0.000362379461 Eh   ::
         :: G(RRHO) contrib.            0.028282749855 Eh   ::
         :::::::::::::::::::::::::::::::::::::::::::::::::::::

           -------------------------------------------------
          | TOTAL ENERGY               -7.878659732602 Eh   |
          | TOTAL ENTHALPY             -7.849887927270 Eh   |
          | TOTAL FREE ENERGY          -7.850376982747 Eh   |
          | GRADIENT NORM               0.000785487547 Eh/Î± |
          | HOMO-LUMO GAP               2.053631776617 eV   |
           -------------------------------------------------

 * finished run on 2020/05/12 at 11:44:47.266
