   * xtb version 6.2.2 (9d81278992624c895f80dd42a50cac0aa55982e2) compiled by '@Darwin' on 04/03/2020
          program call               : xtb --input C1N1O1_3_S_1.input C1N1O1_3_S_1.xyz --ohess --molden --namespace C1N1O1_3_S_1 output.out
          number of atoms            :                     3
          number of electrons        :                    15
          charge                     :                     0
          spin                       :                   0.5

   ID    Z sym.   atoms
    1    6 C      1
    2    8 O      2
    3    7 N      3

          :  Hamiltonian                  GFN2-xTB          :
 * total energy  :    -8.8714631 Eh     change       -0.2477663E-10 Eh
 * total energy  :    -8.8783080 Eh     change       -0.6844939E-02 Eh
 * total energy  :    -8.8796603 Eh     change       -0.1352273E-02 Eh
 * total energy  :    -8.8799338 Eh     change       -0.2734833E-03 Eh
 * total energy  :    -8.8799679 Eh     change       -0.3415738E-04 Eh
 * total energy  :    -8.8799919 Eh     change       -0.2394627E-04 Eh
 * total energy  :    -8.8799922 Eh     change       -0.3200737E-06 Eh
   *** GEOMETRY OPTIMIZATION CONVERGED AFTER 7 ITERATIONS ***

 final structure:
================
3
 xtb: 6.2.2 (9d81278992624c895f80dd42a50cac0aa55982e2)
C         0.75041292548007   -0.14071876878111    0.03633516093634
O        -0.25803529211251    0.74812885871463   -0.01290712850144
N        -0.49237763336756   -0.60741008993352   -0.02342803243490

          :  Hamiltonian                  GFN2-xTB          :
         :: gradient norm              0.000171206695 Eh/a0 ::
         :: HOMO-LUMO gap              2.932195897234 eV    ::
         :: SCC energy                -8.923877894234 Eh    ::
         :: -> dispersion             -0.000754174239 Eh    ::
         :: repulsion energy           0.043885703862 Eh    ::

    * Orbital Energies and Occupations

         #    Occupation            Energy/Eh            Energy/eV
      -------------------------------------------------------------
         1        2.0000           -0.8341750             -22.6991
         2        2.0000           -0.7142002             -19.4344
         3        2.0000           -0.6870302             -18.6950
         4        2.0000           -0.6516597             -17.7326
         5        2.0000           -0.5790770             -15.7575
         6        2.0000           -0.5197190             -14.1423
         7        2.0000           -0.4725105             -12.8577
         8        1.0000           -0.4475267             -12.1778 (HOMO)
         9                         -0.3397703              -9.2456 (LUMO)
        10                         -0.1513870              -4.1195
        11                          0.0019037               0.0518
        12                          0.3147507               8.5648
      -------------------------------------------------------------
                  HL-Gap            0.1077563 Eh            2.9322 eV

     #   Z        covCN         q      C6AA      Î±(0)
     1   6 C      1.764     0.036    30.328     8.904
     2   8 O      1.770    -0.047    15.095     5.246
     3   7 N      1.827     0.011    21.742     6.909

Wiberg/Mayer (AO) data.
largest (>0.10) Wiberg bond orders for each atom
          total WBO             WBO to atom ...

molecular dipole:
                 x           y           z       tot (Debye)
 q only:        0.064      -0.090       0.003
   full:       -0.212       0.184      -0.010       0.715

 projected vibrational frequencies (cm-1)
eigval :       -0.00    -0.00    -0.00     0.00     0.00     0.00
eigval :      803.74  1113.64  1605.93

   temp. (K)  partition function   enthalpy   heat capacity  entropy
                                   cal/mol     cal/K/mol   cal/K/mol   J/K/mol
  10.00  VIB   1.00                    0.000      0.000     -0.000
         ROT   29.9                   29.809      2.981      9.732
         INT   29.9                   29.809      2.981      9.732
         TR   0.162E+25               49.681      4.968     20.258
         TOT                          79.4904     7.9490    29.9894   125.4757

       T/K    H(0)-H(T)+PV         H(T)/Eh          T*S/Eh         G(T)/Eh
   ------------------------------------------------------------------------
    298.15    0.388096E-02    0.119076E-01    0.271961E-01   -0.152885E-01
    120.00    0.152036E-02    0.954703E-02    0.951141E-02    0.356215E-04
    100.00    0.126680E-02    0.929346E-02    0.769510E-02    0.159837E-02
     80.00    0.101341E-02    0.904008E-02    0.592998E-02    0.311010E-02
     60.00    0.760056E-03    0.878673E-02    0.422890E-02    0.455783E-02
     40.00    0.506704E-03    0.853337E-02    0.261388E-02    0.591950E-02
     20.00    0.253352E-03    0.828002E-02    0.113138E-02    0.714864E-02
     10.00    0.126676E-03    0.815335E-02    0.477912E-03    0.767543E-02 (used)
   ------------------------------------------------------------------------

         :::::::::::::::::::::::::::::::::::::::::::::::::::::
         ::                  THERMODYNAMIC                  ::
         :::::::::::::::::::::::::::::::::::::::::::::::::::::
         :: total free energy          -8.872316756121 Eh   ::
         ::.................................................::
         :: total energy               -8.879992189623 Eh   ::
         :: zero point energy           0.008026669276 Eh   ::
         :: G(RRHO) w/o ZPVE           -0.000351235774 Eh   ::
         :: G(RRHO) contrib.            0.007675433502 Eh   ::
         :::::::::::::::::::::::::::::::::::::::::::::::::::::

           -------------------------------------------------
          | TOTAL ENERGY               -8.879992189623 Eh   |
          | TOTAL ENTHALPY             -8.871838844331 Eh   |
          | TOTAL FREE ENERGY          -8.872316756121 Eh   |
          | GRADIENT NORM               0.000171160211 Eh/Î± |
          | HOMO-LUMO GAP               2.932198576374 eV   |
           -------------------------------------------------

 * finished run on 2020/05/12 at 11:44:41.496
