   * xtb version 6.2.2 (9d81278992624c895f80dd42a50cac0aa55982e2) compiled by '@Darwin' on 04/03/2020
          program call               : xtb --input H1C3N1_3_S_0.input H1C3N1_3_S_0.xyz --ohess --molden --namespace H1C3N1_3_S_0 output.out
          number of atoms            :                     5
          number of electrons        :                    18
          charge                     :                     0
          spin                       :                   0.0

   ID    Z sym.   atoms
    1    6 C      1, 3, 4
    2    7 N      2
    3    1 H      5

          :  Hamiltonian                  GFN2-xTB          :
 * total energy  :    -9.3455229 Eh     change       -0.4786163E-09 Eh
 * total energy  :    -9.3851513 Eh     change       -0.3962843E-01 Eh
 * total energy  :    -9.4137215 Eh     change       -0.2857019E-01 Eh
 * total energy  :    -9.4404451 Eh     change       -0.2672361E-01 Eh
 * total energy  :    -9.4667726 Eh     change       -0.2632744E-01 Eh
 * total energy  :    -9.4671293 Eh     change       -0.3567347E-03 Eh
 * total energy  :    -9.5058444 Eh     change       -0.3871508E-01 Eh
 * total energy  :    -9.4658084 Eh     change        0.4003596E-01 Eh
 * total energy  :    -9.5314763 Eh     change       -0.6566784E-01 Eh
 * total energy  :    -9.5182234 Eh     change        0.1325288E-01 Eh
 * total energy  :    -9.6387192 Eh     change       -0.1399227E-03 Eh
 * total energy  :    -9.6388316 Eh     change       -0.1124334E-03 Eh
 * total energy  :    -9.6388535 Eh     change       -0.2190991E-04 Eh
 * total energy  :    -9.6388600 Eh     change       -0.6539893E-05 Eh
 * total energy  :    -9.6388630 Eh     change       -0.2979577E-05 Eh
 * total energy  :    -9.6388697 Eh     change       -0.6693841E-05 Eh
 * total energy  :    -9.6388771 Eh     change       -0.7372991E-05 Eh
 * total energy  :    -9.6388802 Eh     change       -0.3130622E-05 Eh
 * total energy  :    -9.6388810 Eh     change       -0.8108104E-06 Eh
   *** GEOMETRY OPTIMIZATION CONVERGED AFTER 39 ITERATIONS ***

 final structure:
================
5
 xtb: 6.2.2 (9d81278992624c895f80dd42a50cac0aa55982e2)
C         1.19649628559603   -0.34383480724281   -0.02235958690450
N         0.07594749258877   -0.02670203524371   -0.00179257166436
C        -1.13478503047314    0.33838176504951    0.02101895940762
C        -2.33196579634701    0.68967752061332    0.04308195016070
H         2.19430804863536   -0.65752244317628   -0.03994875099946

          :  Hamiltonian                  GFN2-xTB          :
         :: gradient norm              0.000724013894 Eh/a0 ::
         :: HOMO-LUMO gap              2.747700938740 eV    ::
         :: SCC energy                -9.877786008708 Eh    ::
         :: -> dispersion             -0.002075760799 Eh    ::
         :: repulsion energy           0.238905502662 Eh    ::

    * Orbital Energies and Occupations

         #    Occupation            Energy/Eh            Energy/eV
      -------------------------------------------------------------
         1        2.0000           -0.7021363             -19.1061
         2        2.0000           -0.6431829             -17.5019
         3        2.0000           -0.5963964             -16.2288
         4        2.0000           -0.5711707             -15.5423
         5        2.0000           -0.5631230             -15.3234
         6        2.0000           -0.5631110             -15.3230
         7        2.0000           -0.3993675             -10.8673
         8        2.0000           -0.3993561             -10.8670
         9        2.0000           -0.3808576             -10.3637 (HOMO)
        10                         -0.2798806              -7.6159 (LUMO)
        11                         -0.2798265              -7.6145
        12                         -0.0987748              -2.6878
        13                         -0.0987396              -2.6868
        14                          0.0061497               0.1673
        15                          0.2808577               7.6425
        16                          0.9402449              25.5854
        17                          1.4442505              39.3001
      -------------------------------------------------------------
                  HL-Gap            0.1009770 Eh            2.7477 eV

     #   Z        covCN         q      C6AA      Î±(0)
     1   6 C      1.850    -0.020    31.688     9.093
     2   7 N      1.822     0.123    19.764     6.587
     3   6 C      1.902    -0.007    31.305     9.036
     4   6 C      0.982    -0.218    43.312    11.054
     5   1 H      0.928     0.123     1.592     1.973

Wiberg/Mayer (AO) data.
largest (>0.10) Wiberg bond orders for each atom
          total WBO             WBO to atom ...

molecular dipole:
                 x           y           z       tot (Debye)
 q only:        1.455      -0.434      -0.027
   full:        2.226      -0.665      -0.041       5.906

 projected vibrational frequencies (cm-1)
eigval :       -0.00    -0.00    -0.00     0.00     0.00     0.00
eigval :      152.04   182.36   295.04   523.11   599.08  1018.38
eigval :     2011.46  2245.98  3411.75

   temp. (K)  partition function   enthalpy   heat capacity  entropy
                                   cal/mol     cal/K/mol   cal/K/mol   J/K/mol
  10.00  VIB   1.00                    0.000      0.000     -0.019
         ROT   1.63                   29.809      2.981      3.949
         INT   1.63                   29.809      2.981      3.930
         TR   0.217E+25               49.681      4.968     20.838
         TOT                          79.4904     7.9490    24.7682   103.6303

       T/K    H(0)-H(T)+PV         H(T)/Eh          T*S/Eh         G(T)/Eh
   ------------------------------------------------------------------------
    298.15    0.583509E-02    0.296173E-01    0.281762E-01    0.144109E-02
    120.00    0.180561E-02    0.255879E-01    0.892799E-02    0.166599E-01
    100.00    0.144062E-02    0.252229E-01    0.710785E-02    0.181150E-01
     80.00    0.110097E-02    0.248832E-01    0.538370E-02    0.194995E-01
     60.00    0.790386E-03    0.245726E-01    0.377033E-02    0.208023E-01
     40.00    0.510850E-03    0.242931E-01    0.228746E-02    0.220056E-01
     20.00    0.253366E-03    0.240356E-01    0.965384E-03    0.230702E-01
     10.00    0.126676E-03    0.239089E-01    0.394707E-03    0.235142E-01 (used)
   ------------------------------------------------------------------------

         :::::::::::::::::::::::::::::::::::::::::::::::::::::
         ::                  THERMODYNAMIC                  ::
         :::::::::::::::::::::::::::::::::::::::::::::::::::::
         :: total free energy          -9.615366816059 Eh   ::
         ::.................................................::
         :: total energy               -9.638881034587 Eh   ::
         :: zero point energy           0.023782249575 Eh   ::
         :: G(RRHO) w/o ZPVE           -0.000268031047 Eh   ::
         :: G(RRHO) contrib.            0.023514218528 Eh   ::
         :::::::::::::::::::::::::::::::::::::::::::::::::::::

           -------------------------------------------------
          | TOTAL ENERGY               -9.638881034587 Eh   |
          | TOTAL ENTHALPY             -9.614972108997 Eh   |
          | TOTAL FREE ENERGY          -9.615366816059 Eh   |
          | GRADIENT NORM               0.000725640213 Eh/Î± |
          | HOMO-LUMO GAP               2.747724587762 eV   |
           -------------------------------------------------

 * finished run on 2020/05/12 at 11:44:51.339
