 Gaussian 16, Revision B.01,
 Gaussian 16:  ES64L-G16RevB.01 20-Dec-2017

 ------------------------
 #P ROCCSD(T)/aug-cc-pvtz
 ------------------------

 -----
 Title
 -----
 Symbolic Z-matrix:
 Charge =  1 Multiplicity = 4

                         Standard orientation:
 ---------------------------------------------------------------------
 Center     Atomic      Atomic             Coordinates (Angstroms)
 Number     Number       Type             X           Y           Z
 ---------------------------------------------------------------------
      1         16           0        0.000000    0.000000    0.000000
 ---------------------------------------------------------------------

 SCF Done:  E(ROHF) =  -397.169743967     A.U. after   10 cycles
 E2 =    -0.9085550692D-01 EUMP2 =    -0.39726059947430D+03
 CCSD(T)
 CCSD(T)= -0.39728305180D+03

 The electronic state is 4-A1G.
 Alpha  occ. eigenvalues --  -92.44923  -9.44284  -7.13095  -7.13095  -7.13095
 Alpha  occ. eigenvalues --   -1.41029  -0.86172  -0.86172  -0.86172
 Alpha virt. eigenvalues --   -0.11238  -0.07544  -0.07544  -0.07544  -0.01119
 Alpha virt. eigenvalues --   -0.01119  -0.01119  -0.01119  -0.01119   0.24799
 Alpha virt. eigenvalues --    0.24799   0.24799   0.35980   0.35980   0.35980

 Mulliken charges and spin densities:
               1          2
     1  S    1.000000   3.000000
 Sum of Mulliken charges =   1.00000   3.00000

 Dipole moment (field-independent basis, Debye):
    X=              0.0000    Y=              0.0000    Z=              0.0000  Tot=              0.0000
 Quadrupole moment (field-independent basis, Debye-Ang):
   XX=             -9.3175   YY=             -9.3175   ZZ=             -9.3175
   XY=              0.0000   XZ=              0.0000   YZ=             -0.0000

 Normal termination of Gaussian 16 at Mon Oct  5 21:38:11 2020.
