   * xtb version 6.2.2 (9d81278992624c895f80dd42a50cac0aa55982e2) compiled by '@Darwin' on 04/03/2020
          program call               : xtb --input H2C2N1_12_S_1.input H2C2N1_12_S_1.xyz --ohess --molden --namespace H2C2N1_12_S_1 output.out
          number of atoms            :                     5
          number of electrons        :                    15
          charge                     :                     0
          spin                       :                   0.5

   ID    Z sym.   atoms
    1    6 C      1, 3
    2    7 N      2
    3    1 H      4, 5

          :  Hamiltonian                  GFN2-xTB          :
 * total energy  :    -7.9539179 Eh     change       -0.2619238E-10 Eh
 * total energy  :    -7.9904143 Eh     change       -0.3649642E-01 Eh
 * total energy  :    -8.0056455 Eh     change       -0.1523124E-01 Eh
 * total energy  :    -8.0111174 Eh     change       -0.5471841E-02 Eh
 * total energy  :    -8.0136108 Eh     change       -0.2493460E-02 Eh
 * total energy  :    -8.0145417 Eh     change       -0.9308936E-03 Eh
 * total energy  :    -8.0146669 Eh     change       -0.1251783E-03 Eh
 * total energy  :    -8.0146987 Eh     change       -0.3177902E-04 Eh
 * total energy  :    -8.0146988 Eh     change       -0.1288948E-06 Eh
   *** GEOMETRY OPTIMIZATION CONVERGED AFTER 9 ITERATIONS ***

 final structure:
================
5
 xtb: 6.2.2 (9d81278992624c895f80dd42a50cac0aa55982e2)
C         0.73750018739093    0.01471178260955    0.23983419186378
N        -0.00978480363049    1.02566695525423   -0.20644657128433
C        -0.73818653843217    0.00029691518940    0.23822091167713
H         1.58913559683779   -0.50486741243233   -0.13404330525897
H        -1.57866444216606   -0.53580824062085   -0.13756522699762

          :  Hamiltonian                  GFN2-xTB          :
         :: gradient norm              0.000142297316 Eh/a0 ::
         :: HOMO-LUMO gap              0.347704095465 eV    ::
         :: SCC energy                -8.127528784537 Eh    ::
         :: -> dispersion             -0.001518452256 Eh    ::
         :: repulsion energy           0.112829950676 Eh    ::

    * Orbital Energies and Occupations

         #    Occupation            Energy/Eh            Energy/eV
      -------------------------------------------------------------
         1        2.0000           -0.6916387             -18.8204
         2        2.0000           -0.5873580             -15.9828
         3        2.0000           -0.5681757             -15.4608
         4        2.0000           -0.5318989             -14.4737
         5        2.0000           -0.4950574             -13.4712
         6        2.0000           -0.4902015             -13.3391
         7        2.0000           -0.4044043             -11.0044
         8        0.9988           -0.3108615              -8.4590 (HOMO)
         9        0.0012           -0.2980836              -8.1113 (LUMO)
        10                         -0.0550611              -1.4983
        11                          0.1143191               3.1108
        12                          0.1539608               4.1895
        13                          0.3943630              10.7312
        14                          0.5138015              13.9813
      -------------------------------------------------------------
                  HL-Gap            0.0127779 Eh            0.3477 eV

     #   Z        covCN         q      C6AA      Î±(0)
     1   6 C      2.815     0.013    27.708     8.625
     2   7 N      1.820    -0.140    24.812     7.381
     3   6 C      2.815     0.013    27.709     8.625
     4   1 H      0.927     0.057     2.235     2.338
     5   1 H      0.927     0.057     2.235     2.338

Wiberg/Mayer (AO) data.
largest (>0.10) Wiberg bond orders for each atom
          total WBO             WBO to atom ...

molecular dipole:
                 x           y           z       tot (Debye)
 q only:        0.004      -0.383       0.037
   full:        0.007      -0.732      -0.069       1.868

 projected vibrational frequencies (cm-1)
eigval :       -0.00    -0.00    -0.00    -0.00     0.00     0.00
eigval :     -957.38   693.41   818.12   836.79  1025.94  1141.06
eigval :     1678.52  3160.30  3164.71

   temp. (K)  partition function   enthalpy   heat capacity  entropy
                                   cal/mol     cal/K/mol   cal/K/mol   J/K/mol
  10.00  VIB   1.00                    0.000      0.000     -0.000
         ROT   39.5                   29.809      2.981     10.286
         INT   39.5                   29.809      2.981     10.286
         TR   0.151E+25               49.681      4.968     20.115
         TOT                          79.4904     7.9490    30.4008   127.1971

       T/K    H(0)-H(T)+PV         H(T)/Eh          T*S/Eh         G(T)/Eh
   ------------------------------------------------------------------------
    298.15    0.409080E-02    0.326108E-01    0.276569E-01    0.495395E-02
    120.00    0.152129E-02    0.300413E-01    0.959114E-02    0.204502E-01
    100.00    0.126696E-02    0.297870E-01    0.776086E-02    0.220261E-01
     80.00    0.101342E-02    0.295334E-01    0.598246E-02    0.235510E-01
     60.00    0.760056E-03    0.292801E-01    0.426824E-02    0.250118E-01
     40.00    0.506704E-03    0.290267E-01    0.264011E-02    0.263866E-01
     20.00    0.253352E-03    0.287734E-01    0.114449E-02    0.276289E-01
     10.00    0.126676E-03    0.286467E-01    0.484468E-03    0.281622E-01 (used)
   ------------------------------------------------------------------------

         :::::::::::::::::::::::::::::::::::::::::::::::::::::
         ::                  THERMODYNAMIC                  ::
         :::::::::::::::::::::::::::::::::::::::::::::::::::::
         :: total free energy          -7.986536578765 Eh   ::
         ::.................................................::
         :: total energy               -8.014698810896 Eh   ::
         :: zero point energy           0.028520024403 Eh   ::
         :: G(RRHO) w/o ZPVE           -0.000357792272 Eh   ::
         :: G(RRHO) contrib.            0.028162232131 Eh   ::
         :::::::::::::::::::::::::::::::::::::::::::::::::::::

           -------------------------------------------------
          | TOTAL ENERGY               -8.014698810896 Eh   |
          | TOTAL ENTHALPY             -7.986052110478 Eh   |
          | TOTAL FREE ENERGY          -7.986536578765 Eh   |
          | GRADIENT NORM               0.000142100891 Eh/Î± |
          | HOMO-LUMO GAP               0.347703782647 eV   |
           -------------------------------------------------

 * finished run on 2020/05/12 at 11:44:48.501
