   * xtb version 6.2.2 (9d81278992624c895f80dd42a50cac0aa55982e2) compiled by '@Darwin' on 04/03/2020
          program call               : xtb --input C5_3_S_2.input C5_3_S_2.xyz --ohess --molden --namespace C5_3_S_2 output.out
          number of atoms            :                     5
          number of electrons        :                    20
          charge                     :                     0
          spin                       :                   1.0

   ID    Z sym.   atoms
    1    6 C      1-5

          :  Hamiltonian                  GFN2-xTB          :
 * total energy  :    -9.9924646 Eh     change        0.8875869E-09 Eh
 * total energy  :   -10.0289226 Eh     change       -0.3645799E-01 Eh
 * total energy  :   -10.0325064 Eh     change       -0.3583811E-02 Eh
 * total energy  :   -10.0697213 Eh     change       -0.3721488E-01 Eh
 * total energy  :   -10.0773419 Eh     change       -0.7620674E-02 Eh
 * total energy  :   -10.0822123 Eh     change       -0.4870380E-02 Eh
 * total energy  :   -10.0995296 Eh     change       -0.1731724E-01 Eh
 * total energy  :   -10.1155193 Eh     change       -0.1598976E-01 Eh
 * total energy  :   -10.1387542 Eh     change       -0.2323488E-01 Eh
 * total energy  :   -10.1723502 Eh     change       -0.3359598E-01 Eh
 * total energy  :   -10.1819917 Eh     change       -0.6035627E-04 Eh
 * total energy  :   -10.1823561 Eh     change       -0.3643806E-03 Eh
 * total energy  :   -10.1826252 Eh     change       -0.2691475E-03 Eh
 * total energy  :   -10.1830864 Eh     change       -0.4612375E-03 Eh
 * total energy  :   -10.1831269 Eh     change       -0.4043455E-04 Eh
 * total energy  :   -10.1831478 Eh     change       -0.2093164E-04 Eh
 * total energy  :   -10.1831575 Eh     change       -0.9729925E-05 Eh
 * total energy  :   -10.1831635 Eh     change       -0.5976764E-05 Eh
 * total energy  :   -10.1831674 Eh     change       -0.3890310E-05 Eh
   *** GEOMETRY OPTIMIZATION CONVERGED AFTER 32 ITERATIONS ***

 final structure:
================
5
 xtb: 6.2.2 (9d81278992624c895f80dd42a50cac0aa55982e2)
C        -0.24932567106549   -1.11638065914158    0.04319769078427
C        -0.97091622901598    0.05546500872687   -0.00489724186657
C         0.65509983464481   -0.21353730948005    0.73223016493361
C        -0.12278838124995    1.13883181621023   -0.05329476521936
C         0.68793144668661    0.13562214368452   -0.71723584863196

          :  Hamiltonian                  GFN2-xTB          :
         :: gradient norm              0.000905808189 Eh/a0 ::
         :: HOMO-LUMO gap              2.500293816645 eV    ::
         :: SCC energy               -10.329251532556 Eh    ::
         :: -> dispersion             -0.002382826565 Eh    ::
         :: repulsion energy           0.146084115435 Eh    ::

    * Orbital Energies and Occupations

         #    Occupation            Energy/Eh            Energy/eV
      -------------------------------------------------------------
         1        2.0000           -0.7600889             -20.6831
         2        2.0000           -0.6645351             -18.0829
         3        2.0000           -0.6444933             -17.5376
         4        2.0000           -0.6053489             -16.4724
         5        2.0000           -0.5509198             -14.9913
         6        2.0000           -0.5210643             -14.1789
         7        2.0000           -0.4868098             -13.2468
         8        2.0000           -0.4791841             -13.0393
         9        2.0000           -0.4663242             -12.6893
        10        1.0000           -0.4194160             -11.4129
        11        1.0000           -0.4148193             -11.2878 (HOMO)
        12                         -0.3229352              -8.7875 (LUMO)
        13                         -0.2669715              -7.2647
        14                         -0.2088946              -5.6843
        15                         -0.2055421              -5.5931
        16                         -0.0132450              -0.3604
        17                          0.0653041               1.7770
        18                          0.2180257               5.9328
        19                          0.3641679               9.9095
        20                          0.4185658              11.3898
      -------------------------------------------------------------
                  HL-Gap            0.0918841 Eh            2.5003 eV

     #   Z        covCN         q      C6AA      Î±(0)
     1   6 C      2.940    -0.009    28.232     8.714
     2   6 C      3.624     0.052    20.125     6.465
     3   6 C      3.682    -0.018    21.109     6.579
     4   6 C      2.934    -0.009    28.241     8.715
     5   6 C      3.686    -0.017    21.069     6.571

Wiberg/Mayer (AO) data.
largest (>0.10) Wiberg bond orders for each atom
          total WBO             WBO to atom ...

molecular dipole:
                 x           y           z       tot (Debye)
 q only:       -0.134       0.007      -0.003
   full:       -0.440       0.025      -0.006       1.120

 projected vibrational frequencies (cm-1)
eigval :       -0.00    -0.00    -0.00     0.00     0.00     0.00
eigval :      217.60   267.62   519.57   664.13   754.21   992.86
eigval :     1182.20  1418.21  1419.45

   temp. (K)  partition function   enthalpy   heat capacity  entropy
                                   cal/mol     cal/K/mol   cal/K/mol   J/K/mol
  10.00  VIB   1.00                    0.000      0.000     -0.006
         ROT   68.3                   29.809      2.981     11.376
         INT   68.3                   29.809      2.981     11.371
         TR   0.277E+25               49.681      4.968     21.322
         TOT                          79.4904     7.9490    32.6926   136.7857

       T/K    H(0)-H(T)+PV         H(T)/Eh          T*S/Eh         G(T)/Eh
   ------------------------------------------------------------------------
    298.15    0.527305E-02    0.222132E-01    0.307187E-01   -0.850557E-02
    120.00    0.165642E-02    0.185965E-01    0.102116E-01    0.838492E-02
    100.00    0.134018E-02    0.182803E-01    0.822172E-02    0.100586E-01
     80.00    0.104383E-02    0.179839E-01    0.631323E-02    0.116707E-01
     60.00    0.767462E-03    0.177076E-01    0.449679E-02    0.132108E-01
     40.00    0.507180E-03    0.174473E-01    0.278708E-02    0.146602E-01
     20.00    0.253352E-03    0.171935E-01    0.121763E-02    0.159758E-01
     10.00    0.126676E-03    0.170668E-01    0.520989E-03    0.165458E-01 (used)
   ------------------------------------------------------------------------

         :::::::::::::::::::::::::::::::::::::::::::::::::::::
         ::                  THERMODYNAMIC                  ::
         :::::::::::::::::::::::::::::::::::::::::::::::::::::
         :: total free energy         -10.166621610775 Eh   ::
         ::.................................................::
         :: total energy              -10.183167401131 Eh   ::
         :: zero point energy           0.016940103695 Eh   ::
         :: G(RRHO) w/o ZPVE           -0.000394313339 Eh   ::
         :: G(RRHO) contrib.            0.016545790356 Eh   ::
         :::::::::::::::::::::::::::::::::::::::::::::::::::::

           -------------------------------------------------
          | TOTAL ENERGY              -10.183167401131 Eh   |
          | TOTAL ENTHALPY            -10.166100621420 Eh   |
          | TOTAL FREE ENERGY         -10.166621610775 Eh   |
          | GRADIENT NORM               0.000905815881 Eh/Î± |
          | HOMO-LUMO GAP               2.500293277025 eV   |
           -------------------------------------------------

 * finished run on 2020/05/12 at 11:44:32.630
