   * xtb version 6.2.2 (9d81278992624c895f80dd42a50cac0aa55982e2) compiled by '@Darwin' on 04/03/2020
          program call               : xtb --input H1C4_6_S_3.input H1C4_6_S_3.xyz --ohess --molden --namespace H1C4_6_S_3 output.out
          number of atoms            :                     5
          number of electrons        :                    17
          charge                     :                     0
          spin                       :                   1.5

   ID    Z sym.   atoms
    1    6 C      1-4
    2    1 H      5

          :  Hamiltonian                  GFN2-xTB          :
 * total energy  :    -8.5267994 Eh     change        0.1075078E-08 Eh
 * total energy  :    -8.5735976 Eh     change       -0.4679826E-01 Eh
 * total energy  :    -8.5952636 Eh     change       -0.2166598E-01 Eh
 * total energy  :    -8.6050324 Eh     change       -0.9768762E-02 Eh
 * total energy  :    -8.6093342 Eh     change       -0.4301809E-02 Eh
 * total energy  :    -8.6140372 Eh     change       -0.4703029E-02 Eh
 * total energy  :    -8.6158173 Eh     change       -0.1780052E-02 Eh
 * total energy  :    -8.6173066 Eh     change       -0.1489342E-02 Eh
 * total energy  :    -8.6178820 Eh     change       -0.5754199E-03 Eh
 * total energy  :    -8.6191686 Eh     change       -0.1286572E-02 Eh
 * total energy  :    -8.6200231 Eh     change       -0.8544985E-03 Eh
 * total energy  :    -8.6204821 Eh     change       -0.4590552E-03 Eh
 * total energy  :    -8.6208161 Eh     change       -0.3339794E-03 Eh
 * total energy  :    -8.6209142 Eh     change       -0.9809172E-04 Eh
 * total energy  :    -8.6210598 Eh     change       -0.1456262E-03 Eh
 * total energy  :    -8.6211907 Eh     change       -0.1308272E-03 Eh
 * total energy  :    -8.6212001 Eh     change       -0.9445526E-05 Eh
 * total energy  :    -8.6212028 Eh     change       -0.2738061E-05 Eh
 * total energy  :    -8.6212063 Eh     change       -0.3487999E-05 Eh
   *** GEOMETRY OPTIMIZATION CONVERGED AFTER 19 ITERATIONS ***

 final structure:
================
5
 xtb: 6.2.2 (9d81278992624c895f80dd42a50cac0aa55982e2)
C         1.87000243510968   -0.44343143892018    0.02358026933400
C         0.67680611539580    0.12928594228900    0.01085261678012
C        -0.73850265859522   -0.08590503387110   -0.01228214048501
C        -0.29037080069079    1.21049175543714    0.00834794508716
H        -1.51793609121946   -0.81044022493486   -0.03049869071626

          :  Hamiltonian                  GFN2-xTB          :
         :: gradient norm              0.001060059621 Eh/a0 ::
         :: HOMO-LUMO gap              1.198154767485 eV    ::
         :: SCC energy                -8.779101658937 Eh    ::
         :: -> dispersion             -0.002255705141 Eh    ::
         :: repulsion energy           0.157895248229 Eh    ::

    * Orbital Energies and Occupations

         #    Occupation            Energy/Eh            Energy/eV
      -------------------------------------------------------------
         1        2.0000           -0.6976397             -18.9837
         2        2.0000           -0.6364192             -17.3178
         3        2.0000           -0.5915827             -16.0978
         4        2.0000           -0.5366970             -14.6043
         5        2.0000           -0.5184640             -14.1081
         6        2.0000           -0.4937437             -13.4354
         7        1.7738           -0.4228593             -11.5066
         8        1.2262           -0.4205219             -11.4430
         9        1.0000           -0.3958727             -10.7722
        10        1.0000           -0.3178108              -8.6481 (HOMO)
        11                         -0.2737786              -7.4499 (LUMO)
        12                         -0.2009596              -5.4684
        13                         -0.0024963              -0.0679
        14                          0.0656374               1.7861
        15                          0.1740407               4.7359
        16                          0.5758366              15.6693
        17                          0.7309716              19.8907
      -------------------------------------------------------------
                  HL-Gap            0.0440322 Eh            1.1982 eV

     #   Z        covCN         q      C6AA      Î±(0)
     1   6 C      0.981    -0.134    40.254    10.657
     2   6 C      2.939     0.111    25.551     8.290
     3   6 C      2.887     0.027    27.397     8.581
Molecule has the following symmetry elements: (sigma)
It seems to be the Cs point group
     4   6 C      1.960    -0.085    33.405     9.334
     5   1 H      0.927     0.081     1.969     2.194

Wiberg/Mayer (AO) data.
largest (>0.10) Wiberg bond orders for each atom
          total WBO             WBO to atom ...

molecular dipole:
                 x           y           z       tot (Debye)
 q only:       -0.554      -0.184      -0.010
   full:       -0.775      -0.477      -0.017       2.315

 projected vibrational frequencies (cm-1)
eigval :       -0.00    -0.00    -0.00     0.00     0.00     0.00
eigval :      169.24   339.14   611.19   656.97   802.35   887.06
eigval :     1437.64  1607.46  3200.70

   temp. (K)  partition function   enthalpy   heat capacity  entropy
                                   cal/mol     cal/K/mol   cal/K/mol   J/K/mol
  10.00  VIB   1.00                    0.000      0.000     -0.009
         ROT   112.                   29.809      2.981     12.351
         INT   112.                   29.809      2.981     12.342
         TR   0.204E+25               49.681      4.968     20.719
         TOT                          79.4904     7.9490    33.0611   138.3278

       T/K    H(0)-H(T)+PV         H(T)/Eh          T*S/Eh         G(T)/Eh
   ------------------------------------------------------------------------
    298.15    0.518991E-02    0.273149E-01    0.308247E-01   -0.350975E-02
    120.00    0.166707E-02    0.237921E-01    0.103086E-01    0.134835E-01
    100.00    0.135334E-02    0.234783E-01    0.830484E-02    0.151735E-01
     80.00    0.105555E-02    0.231805E-01    0.637842E-02    0.168021E-01
     60.00    0.774070E-03    0.228991E-01    0.454124E-02    0.183578E-01
     40.00    0.508467E-03    0.226335E-01    0.281243E-02    0.198210E-01
     20.00    0.253356E-03    0.223784E-01    0.122946E-02    0.211489E-01
     10.00    0.126676E-03    0.222517E-01    0.526863E-03    0.217248E-01 (used)
   ------------------------------------------------------------------------

         :::::::::::::::::::::::::::::::::::::::::::::::::::::
         ::                  THERMODYNAMIC                  ::
         :::::::::::::::::::::::::::::::::::::::::::::::::::::
         :: total free energy          -8.599481525121 Eh   ::
         ::.................................................::
         :: total energy               -8.621206335926 Eh   ::
         :: zero point energy           0.022124997436 Eh   ::
         :: G(RRHO) w/o ZPVE           -0.000400186631 Eh   ::
         :: G(RRHO) contrib.            0.021724810805 Eh   ::
         :::::::::::::::::::::::::::::::::::::::::::::::::::::

           -------------------------------------------------
          | TOTAL ENERGY               -8.621206335926 Eh   |
          | TOTAL ENTHALPY             -8.598954662474 Eh   |
          | TOTAL FREE ENERGY          -8.599481525121 Eh   |
          | GRADIENT NORM               0.001053939179 Eh/Î± |
          | HOMO-LUMO GAP               1.198177013355 eV   |
           -------------------------------------------------

 * finished run on 2020/05/12 at 11:45:10.695
