   * xtb version 6.2.2 (9d81278992624c895f80dd42a50cac0aa55982e2) compiled by '@Darwin' on 04/03/2020
          program call               : xtb --input C4N1_29_S_3.input C4N1_29_S_3.xyz --ohess --molden --namespace C4N1_29_S_3 output.out
          number of atoms            :                     5
          number of electrons        :                    21
          charge                     :                     0
          spin                       :                   1.5

   ID    Z sym.   atoms
    1    6 C      1, 3-5
    2    7 N      2

          :  Hamiltonian                  GFN2-xTB          :
 * total energy  :   -10.8769613 Eh     change        0.6657785E-10 Eh
 * total energy  :   -10.8834718 Eh     change       -0.6510512E-02 Eh
 * total energy  :   -10.9125508 Eh     change       -0.2907902E-01 Eh
 * total energy  :   -10.9162764 Eh     change       -0.3725643E-02 Eh
 * total energy  :   -10.9212096 Eh     change       -0.4933125E-02 Eh
 * total energy  :   -10.9226296 Eh     change       -0.1419979E-02 Eh
 * total energy  :   -10.9233586 Eh     change       -0.7290919E-03 Eh
 * total energy  :   -10.9236425 Eh     change       -0.2838830E-03 Eh
 * total energy  :   -10.9236586 Eh     change       -0.1602486E-04 Eh
 * total energy  :   -10.9236587 Eh     change       -0.1647841E-06 Eh
   *** GEOMETRY OPTIMIZATION CONVERGED AFTER 10 ITERATIONS ***

 final structure:
================
5
 xtb: 6.2.2 (9d81278992624c895f80dd42a50cac0aa55982e2)
C        -1.34382308920619    0.53995300124774   -0.00899446303781
N         0.05741634279286    0.08633665926881   -0.31469466759903
C         1.31491124404139   -0.58317920321785    0.16648591871283
C        -1.22088691872386   -0.70531019919197   -0.32987508586138
C         1.19238242109579    0.66219874189327    0.48707829778539

          :  Hamiltonian                  GFN2-xTB          :
         :: gradient norm              0.000141391057 Eh/a0 ::
         :: HOMO-LUMO gap              2.952298212723 eV    ::
         :: SCC energy               -11.079628156731 Eh    ::
         :: -> dispersion             -0.002969635353 Eh    ::
         :: repulsion energy           0.155969397946 Eh    ::

    * Orbital Energies and Occupations

         #    Occupation            Energy/Eh            Energy/eV
      -------------------------------------------------------------
         1        2.0000           -0.7421068             -20.1938
         2        2.0000           -0.7336646             -19.9640
         3        2.0000           -0.6222418             -16.9321
         4        2.0000           -0.6115121             -16.6401
         5        2.0000           -0.5786767             -15.7466
         6        2.0000           -0.5526478             -15.0383
         7        2.0000           -0.5295565             -14.4100
         8        2.0000           -0.4790934             -13.0368
         9        2.0000           -0.4621429             -12.5755
        10        1.0000           -0.4234264             -11.5220
        11        1.0000           -0.4130042             -11.2384
        12        1.0000           -0.3880265             -10.5587 (HOMO)
        13                         -0.2795315              -7.6064 (LUMO)
        14                         -0.2658490              -7.2341
        15                         -0.2352926              -6.4026
        16                         -0.1639007              -4.4600
        17                         -0.0340993              -0.9279
        18                          0.0818122               2.2262
        19                          0.5577767              15.1779
        20                          0.5991732              16.3043
      -------------------------------------------------------------
Molecule has the following symmetry elements: (C2) 2*(sigma)
It seems to be the C2v point group
                  HL-Gap            0.1084950 Eh            2.9523 eV

     #   Z        covCN         q      C6AA      Î±(0)
     1   6 C      1.885    -0.016    31.561     9.074
     2   7 N      3.613     0.065    20.096     6.658
     3   6 C      1.885    -0.016    31.555     9.073
     4   6 C      1.885    -0.016    31.555     9.073
     5   6 C      1.885    -0.016    31.560     9.073

Wiberg/Mayer (AO) data.
largest (>0.10) Wiberg bond orders for each atom
          total WBO             WBO to atom ...

molecular dipole:
                 x           y           z       tot (Debye)
 q only:        0.009       0.013      -0.049
   full:        0.014       0.020      -0.078       0.207

 projected vibrational frequencies (cm-1)
eigval :       -0.00    -0.00     0.00     0.00     0.00     0.00
eigval :     -528.91  -349.23  -130.85   296.64   367.59   780.52
eigval :      792.63  1777.38  1777.96

   temp. (K)  partition function   enthalpy   heat capacity  entropy
                                   cal/mol     cal/K/mol   cal/K/mol   J/K/mol
  10.00  VIB   1.00                    0.000      0.000     -0.002
         ROT   99.8                   29.809      2.981     12.128
         INT   99.8                   29.809      2.981     12.126
         TR   0.290E+25               49.681      4.968     21.419
         TOT                          79.4904     7.9490    33.5458   140.3555

       T/K    H(0)-H(T)+PV         H(T)/Eh          T*S/Eh         G(T)/Eh
   ------------------------------------------------------------------------
    298.15    0.471132E-02    0.179081E-01    0.301695E-01   -0.122614E-01
    120.00    0.158106E-02    0.147778E-01    0.102684E-01    0.450943E-02
    100.00    0.129455E-02    0.144913E-01    0.829607E-02    0.619525E-02
     80.00    0.102222E-02    0.142190E-01    0.639404E-02    0.782494E-02
     60.00    0.761406E-03    0.139582E-01    0.457067E-02    0.938750E-02
     40.00    0.506739E-03    0.137035E-01    0.284071E-02    0.108628E-01
     20.00    0.253352E-03    0.134501E-01    0.124475E-02    0.122054E-01
     10.00    0.126676E-03    0.133234E-01    0.534586E-03    0.127889E-01 (used)
   ------------------------------------------------------------------------

         :::::::::::::::::::::::::::::::::::::::::::::::::::::
         ::                  THERMODYNAMIC                  ::
         :::::::::::::::::::::::::::::::::::::::::::::::::::::
         :: total free energy         -10.910869864052 Eh   ::
         ::.................................................::
         :: total energy              -10.923658719227 Eh   ::
         :: zero point energy           0.013196764846 Eh   ::
         :: G(RRHO) w/o ZPVE           -0.000407909670 Eh   ::
         :: G(RRHO) contrib.            0.012788855175 Eh   ::
         :::::::::::::::::::::::::::::::::::::::::::::::::::::

           -------------------------------------------------
          | TOTAL ENERGY              -10.923658719227 Eh   |
          | TOTAL ENTHALPY            -10.910335278366 Eh   |
          | TOTAL FREE ENERGY         -10.910869864052 Eh   |
          | GRADIENT NORM               0.000141822215 Eh/Î± |
          | HOMO-LUMO GAP               2.952298508542 eV   |
           -------------------------------------------------

 * finished run on 2020/05/12 at 11:44:11.284
