   * xtb version 6.2.2 (9d81278992624c895f80dd42a50cac0aa55982e2) compiled by '@Darwin' on 04/03/2020
          program call               : xtb --input H2C1O2_0_S_0.input H2C1O2_0_S_0.xyz --ohess --molden --namespace H2C1O2_0_S_0 output.out
          number of atoms            :                     5
          number of electrons        :                    18
          charge                     :                     0
          spin                       :                   0.0

   ID    Z sym.   atoms
    1    6 C      1
    2    8 O      2, 3
    3    1 H      4, 5

          :  Hamiltonian                  GFN2-xTB          :
 * total energy  :   -11.0998255 Eh     change        0.1296740E-12 Eh
 * total energy  :   -11.1247641 Eh     change       -0.2493863E-01 Eh
 * total energy  :   -11.1391694 Eh     change       -0.1440528E-01 Eh
 * total energy  :   -11.1479263 Eh     change       -0.8756949E-02 Eh
 * total energy  :   -11.1636355 Eh     change       -0.1570915E-01 Eh
 * total energy  :   -11.2025862 Eh     change       -0.3895074E-01 Eh
 * total energy  :   -11.2262333 Eh     change       -0.2364706E-01 Eh
 * total energy  :   -11.2487659 Eh     change       -0.2253263E-01 Eh
 * total energy  :   -11.2689283 Eh     change       -0.2016240E-01 Eh
 * total energy  :   -11.2788392 Eh     change       -0.9910899E-02 Eh
 * total energy  :   -11.2867093 Eh     change       -0.1956588E-02 Eh
 * total energy  :   -11.2897458 Eh     change       -0.3036449E-02 Eh
 * total energy  :   -11.2906671 Eh     change       -0.9213124E-03 Eh
 * total energy  :   -11.2911361 Eh     change       -0.4690355E-03 Eh
 * total energy  :   -11.2913664 Eh     change       -0.2302475E-03 Eh
 * total energy  :   -11.2914642 Eh     change       -0.9775829E-04 Eh
 * total energy  :   -11.2914931 Eh     change       -0.2894835E-04 Eh
 * total energy  :   -11.2915078 Eh     change       -0.1472004E-04 Eh
 * total energy  :   -11.2915089 Eh     change       -0.1079702E-05 Eh
   *** GEOMETRY OPTIMIZATION CONVERGED AFTER 20 ITERATIONS ***

 final structure:
================
5
 xtb: 6.2.2 (9d81278992624c895f80dd42a50cac0aa55982e2)
C         0.13060335982434    1.32744119998824   -0.15365332168022
O         1.26412893848514    1.20682201242633   -0.24461379473918
O        -1.00278230738508    1.45074643220063   -0.06299236724050
H        -0.16072512736573   -1.95143080216299    0.61543303328106
H        -0.23122486355867   -2.03357784245219   -0.15417354962115

          :  Hamiltonian                  GFN2-xTB          :
         :: gradient norm              0.000381557154 Eh/a0 ::
         :: HOMO-LUMO gap              6.756829300741 eV    ::
         :: SCC energy               -11.445921081424 Eh    ::
         :: -> dispersion             -0.001153840936 Eh    ::
         :: repulsion energy           0.154411825482 Eh    ::

    * Orbital Energies and Occupations

         #    Occupation            Energy/Eh            Energy/eV
      -------------------------------------------------------------
         1        2.0000           -0.8102584             -22.0483
         2        2.0000           -0.7961738             -21.6650
         3        2.0000           -0.6644530             -18.0807
         4        2.0000           -0.6629830             -18.0407
         5        2.0000           -0.6629828             -18.0407
         6        2.0000           -0.5994570             -16.3121
         7        2.0000           -0.5339732             -14.5302
         8        2.0000           -0.5339707             -14.5301
         9        2.0000           -0.4718145             -12.8387 (HOMO)
        10                         -0.2235056              -6.0819 (LUMO)
        11                         -0.2234477              -6.0803
        12                          0.1190576               3.2397
        13                          0.3104449               8.4476
        14                          1.3649680              37.1427
      -------------------------------------------------------------
                  HL-Gap            0.2483089 Eh            6.7568 eV

     #   Z        covCN         q      C6AA      Î±(0)
     1   6 C      1.711     0.464    21.604     7.525
     2   8 O      0.856    -0.232    18.598     5.782
Molecule has the following symmetry elements: (C2) 2*(sigma)
It seems to be the C2v point group
     3   8 O      0.856    -0.232    18.600     5.782
     4   1 H      0.812     0.000     3.104     2.766
     5   1 H      0.812     0.000     3.104     2.766

Wiberg/Mayer (AO) data.
largest (>0.10) Wiberg bond orders for each atom
          total WBO             WBO to atom ...

molecular dipole:
                 x           y           z       tot (Debye)
 q only:        0.000      -0.003       0.000
   full:       -0.000      -0.005       0.001       0.012

 projected vibrational frequencies (cm-1)
eigval :       -0.00    -0.00     0.00     0.00     0.00     0.00
eigval :      -44.80    31.87    53.32    77.62   599.22   600.80
eigval :     1424.92  2593.46  3734.82

   temp. (K)  partition function   enthalpy   heat capacity  entropy
                                   cal/mol     cal/K/mol   cal/K/mol   J/K/mol
  10.00  VIB   1.01                    1.013      0.493      0.544
         ROT   57.0                   29.809      2.981     11.017
         INT   57.7                   30.822      3.474     11.561
         TR   0.186E+25               49.681      4.968     20.529
         TOT                          80.5035     8.4421    32.0904   134.2662

       T/K    H(0)-H(T)+PV         H(T)/Eh          T*S/Eh         G(T)/Eh
   ------------------------------------------------------------------------
    298.15    0.658329E-02    0.273511E-01    0.340433E-01   -0.669213E-02
    120.00    0.233789E-02    0.231057E-01    0.113728E-01    0.117329E-01
    100.00    0.190004E-02    0.226679E-01    0.911755E-02    0.135503E-01
     80.00    0.146854E-02    0.222364E-01    0.694628E-02    0.152901E-01
     60.00    0.104547E-02    0.218133E-01    0.487870E-02    0.169346E-01
     40.00    0.639282E-03    0.214071E-01    0.295095E-02    0.184562E-01
     20.00    0.276358E-03    0.210442E-01    0.123772E-02    0.198065E-01
     10.00    0.128291E-03    0.208961E-01    0.511393E-03    0.203847E-01 (used)
   ------------------------------------------------------------------------

         :::::::::::::::::::::::::::::::::::::::::::::::::::::
         ::                  THERMODYNAMIC                  ::
         :::::::::::::::::::::::::::::::::::::::::::::::::::::
         :: total free energy         -11.271124162718 Eh   ::
         ::.................................................::
         :: total energy              -11.291508900760 Eh   ::
         :: zero point energy           0.020767840355 Eh   ::
         :: G(RRHO) w/o ZPVE           -0.000383102314 Eh   ::
         :: G(RRHO) contrib.            0.020384738042 Eh   ::
         :::::::::::::::::::::::::::::::::::::::::::::::::::::

           -------------------------------------------------
          | TOTAL ENERGY              -11.291508900760 Eh   |
          | TOTAL ENTHALPY            -11.270612769858 Eh   |
          | TOTAL FREE ENERGY         -11.271124162718 Eh   |
          | GRADIENT NORM               0.000381550237 Eh/Î± |
          | HOMO-LUMO GAP               6.756829298322 eV   |
           -------------------------------------------------

 * finished run on 2020/05/12 at 11:43:51.999
