   * xtb version 6.2.2 (9d81278992624c895f80dd42a50cac0aa55982e2) compiled by '@Darwin' on 04/03/2020
          program call               : xtb --input H2C2N1_6_S_3.input H2C2N1_6_S_3.xyz --ohess --molden --namespace H2C2N1_6_S_3 output.out
          number of atoms            :                     5
          number of electrons        :                    15
          charge                     :                     0
          spin                       :                   1.5

   ID    Z sym.   atoms
    1    7 N      1
    2    6 C      2, 3
    3    1 H      4, 5

          :  Hamiltonian                  GFN2-xTB          :
 * total energy  :    -7.7615921 Eh     change       -0.3913958E-08 Eh
 * total energy  :    -7.7710947 Eh     change       -0.9502611E-02 Eh
 * total energy  :    -7.7951565 Eh     change       -0.2406188E-01 Eh
 * total energy  :    -7.6927954 Eh     change        0.1023611E+00 Eh
 * total energy  :    -7.7581485 Eh     change       -0.6535308E-01 Eh
 * total energy  :    -7.7200796 Eh     change        0.3806887E-01 Eh
 * total energy  :    -7.7490097 Eh     change       -0.2893010E-01 Eh
 * total energy  :    -7.7776255 Eh     change       -0.2861581E-01 Eh
 * total energy  :    -7.7814225 Eh     change       -0.3797017E-02 Eh
 * total energy  :    -7.7829385 Eh     change       -0.1515924E-02 Eh
 * total energy  :    -7.7839056 Eh     change       -0.9671300E-03 Eh
 * total energy  :    -7.7862968 Eh     change       -0.2391236E-02 Eh
 * total energy  :    -7.7907972 Eh     change       -0.4500388E-02 Eh
 * total energy  :    -7.7982973 Eh     change       -0.7500045E-02 Eh
 * total energy  :    -7.8014964 Eh     change       -0.3199142E-02 Eh
 * total energy  :    -7.8023318 Eh     change       -0.8354170E-03 Eh
 * total energy  :    -7.8024533 Eh     change       -0.1214469E-03 Eh
 * total energy  :    -7.8024540 Eh     change       -0.7624399E-06 Eh
   *** GEOMETRY OPTIMIZATION CONVERGED AFTER 18 ITERATIONS ***

 final structure:
================
5
 xtb: 6.2.2 (9d81278992624c895f80dd42a50cac0aa55982e2)
N        -0.00860024285429    0.27553194841720    0.03298322013193
C         0.80443218868943   -0.95700426751359   -0.10739949410346
C        -0.74326882089320   -1.00292967538345   -0.12721785962194
H        -0.01850584312270    0.94312441280097   -0.74024810785086
H        -0.03405628181923    0.74127758167887    0.94188224144432

          :  Hamiltonian                  GFN2-xTB          :
         :: gradient norm              0.000159642755 Eh/a0 ::
         :: HOMO-LUMO gap              4.076131379700 eV    ::
         :: SCC energy                -7.866176464941 Eh    ::
         :: -> dispersion             -0.001503616488 Eh    ::
         :: repulsion energy           0.063722399762 Eh    ::

    * Orbital Energies and Occupations

         #    Occupation            Energy/Eh            Energy/eV
      -------------------------------------------------------------
         1        2.0000           -0.6871704             -18.6989
         2        2.0000           -0.6396157             -17.4048
         3        2.0000           -0.5945120             -16.1775
         4        2.0000           -0.5663606             -15.4115
         5        2.0000           -0.4656507             -12.6710
         6        2.0000           -0.4206237             -11.4458
         7        1.0000           -0.3671743              -9.9913
         8        1.0000           -0.3546527              -9.6506
         9        1.0000           -0.2491799              -6.7805 (HOMO)
        10                         -0.0993849              -2.7044 (LUMO)
        11                         -0.0595544              -1.6206
        12                          0.1472611               4.0072
        13                          0.1546806               4.2091
        14                          0.1548562               4.2139
      -------------------------------------------------------------
                  HL-Gap            0.1497951 Eh            4.0761 eV

     #   Z        covCN         q      C6AA      Î±(0)
     1   7 N      3.530    -0.028    21.777     6.931
     2   6 C      1.878    -0.167    35.917     9.680
     3   6 C      1.878    -0.167    35.917     9.680
     4   1 H      0.860     0.181     1.208     1.722
     5   1 H      0.860     0.181     1.208     1.722

Wiberg/Mayer (AO) data.
largest (>0.10) Wiberg bond orders for each atom
          total WBO             WBO to atom ...

molecular dipole:
                 x           y           z       tot (Debye)
 q only:       -0.037       1.181       0.141
   full:       -0.064       2.052       0.246       5.255

 projected vibrational frequencies (cm-1)
eigval :       -0.00    -0.00     0.00     0.00     0.00     0.00
eigval :      461.25   656.98   769.17   781.56   872.04  1138.11
eigval :     1394.71  3223.83  3234.72

   temp. (K)  partition function   enthalpy   heat capacity  entropy
                                   cal/mol     cal/K/mol   cal/K/mol   J/K/mol
  10.00  VIB   1.00                    0.000      0.000     -0.000
         ROT   23.2                   29.809      2.981      9.230
         INT   23.2                   29.809      2.981      9.229
         TR   0.151E+25               49.681      4.968     20.115
         TOT                          79.4904     7.9490    29.3437   122.7740

       T/K    H(0)-H(T)+PV         H(T)/Eh          T*S/Eh         G(T)/Eh
   ------------------------------------------------------------------------
    298.15    0.442315E-02    0.329740E-01    0.276202E-01    0.535383E-02
    120.00    0.153038E-02    0.300812E-01    0.939975E-02    0.206815E-01
    100.00    0.126987E-02    0.298207E-01    0.759579E-02    0.222249E-01
     80.00    0.101396E-02    0.295648E-01    0.584833E-02    0.237165E-01
     60.00    0.760090E-03    0.293109E-01    0.416723E-02    0.251437E-01
     40.00    0.506704E-03    0.290575E-01    0.257273E-02    0.264848E-01
     20.00    0.253352E-03    0.288042E-01    0.111080E-02    0.276934E-01
     10.00    0.126676E-03    0.286775E-01    0.467622E-03    0.282099E-01 (used)
   ------------------------------------------------------------------------

         :::::::::::::::::::::::::::::::::::::::::::::::::::::
         ::                  THERMODYNAMIC                  ::
         :::::::::::::::::::::::::::::::::::::::::::::::::::::
         :: total free energy          -7.774244148099 Eh   ::
         ::.................................................::
         :: total energy               -7.802454041843 Eh   ::
         :: zero point energy           0.028550839304 Eh   ::
         :: G(RRHO) w/o ZPVE           -0.000340945560 Eh   ::
         :: G(RRHO) contrib.            0.028209893744 Eh   ::
         :::::::::::::::::::::::::::::::::::::::::::::::::::::

           -------------------------------------------------
          | TOTAL ENERGY               -7.802454041843 Eh   |
          | TOTAL ENTHALPY             -7.773776526523 Eh   |
          | TOTAL FREE ENERGY          -7.774244148099 Eh   |
          | GRADIENT NORM               0.000159675561 Eh/Î± |
          | HOMO-LUMO GAP               4.076131431615 eV   |
           -------------------------------------------------

 * finished run on 2020/05/12 at 11:44:46.969
