   * xtb version 6.2.2 (9d81278992624c895f80dd42a50cac0aa55982e2) compiled by '@Darwin' on 04/03/2020
          program call               : xtb --input C5_16_S_2.input C5_16_S_2.xyz --ohess --molden --namespace C5_16_S_2 output.out
          number of atoms            :                     5
          number of electrons        :                    20
          charge                     :                     0
          spin                       :                   1.0

   ID    Z sym.   atoms
    1    6 C      1-5

          :  Hamiltonian                  GFN2-xTB          :
 * total energy  :   -10.1435851 Eh     change        0.1315836E-09 Eh
 * total energy  :   -10.1653752 Eh     change       -0.2179012E-01 Eh
 * total energy  :   -10.1690408 Eh     change       -0.3665577E-02 Eh
 * total energy  :   -10.1699101 Eh     change       -0.8693321E-03 Eh
 * total energy  :   -10.1699369 Eh     change       -0.2680301E-04 Eh
 * total energy  :   -10.1699430 Eh     change       -0.6119939E-05 Eh
 * total energy  :   -10.1699447 Eh     change       -0.1649129E-05 Eh
   *** GEOMETRY OPTIMIZATION CONVERGED AFTER 7 ITERATIONS ***

 final structure:
================
5
 xtb: 6.2.2 (9d81278992624c895f80dd42a50cac0aa55982e2)
C         0.11815095867795   -0.91629739058753   -0.00141126036370
C        -0.76077313994480    0.04128140986694    0.76599412701141
C         0.20989481653469    0.89968371193386   -0.00804388058241
C        -0.80383295376680    0.03792876004413   -0.72088567598593
C         1.23655931849897   -0.06259649125740   -0.03565231007937

          :  Hamiltonian                  GFN2-xTB          :
         :: gradient norm              0.000371409311 Eh/a0 ::
         :: HOMO-LUMO gap              1.750795189806 eV    ::
         :: SCC energy               -10.311586045590 Eh    ::
         :: -> dispersion             -0.002528200653 Eh    ::
         :: repulsion energy           0.141641329262 Eh    ::

    * Orbital Energies and Occupations

         #    Occupation            Energy/Eh            Energy/eV
      -------------------------------------------------------------
         1        2.0000           -0.7548027             -20.5392
         2        2.0000           -0.6644901             -18.0817
         3        2.0000           -0.6261983             -17.0397
         4        2.0000           -0.6065913             -16.5062
         5        2.0000           -0.5475247             -14.8989
         6        2.0000           -0.5150914             -14.0164
         7        2.0000           -0.4662908             -12.6884
         8        2.0000           -0.4654515             -12.6656
         9        2.0000           -0.4639220             -12.6240
        10        1.0000           -0.4406570             -11.9909
        11        1.0000           -0.4066592             -11.0658 (HOMO)
        12                         -0.3423187              -9.3150 (LUMO)
        13                         -0.3306727              -8.9981
        14                         -0.1080409              -2.9399
        15                         -0.1072549              -2.9186
        16                          0.0585329               1.5928
        17                          0.1224848               3.3330
        18                          0.1382648               3.7624
        19                          0.2144954               5.8367
        20                          0.4705768              12.8050
      -------------------------------------------------------------
                  HL-Gap            0.0643405 Eh            1.7508 eV

     #   Z        covCN         q      C6AA      Î±(0)
     1   6 C      3.749     0.015    20.378     6.438
     2   6 C      3.132    -0.008    27.994     8.661
     3   6 C      3.749     0.015    20.378     6.438
     4   6 C      3.132    -0.008    27.994     8.661
     5   6 C      2.364    -0.016    29.392     8.823

Wiberg/Mayer (AO) data.
largest (>0.10) Wiberg bond orders for each atom
          total WBO             WBO to atom ...

molecular dipole:
                 x           y           z       tot (Debye)
 q only:       -0.004       0.000       0.000
   full:        0.080      -0.004      -0.002       0.204

 projected vibrational frequencies (cm-1)
eigval :       -0.00    -0.00     0.00     0.00     0.00     0.00
eigval :     -738.17  -134.72   721.70   795.07   814.61   930.18
eigval :     1003.14  1351.01  1400.67

   temp. (K)  partition function   enthalpy   heat capacity  entropy
                                   cal/mol     cal/K/mol   cal/K/mol   J/K/mol
  10.00  VIB   1.00                    0.000      0.000     -0.000
         ROT   67.9                   29.809      2.981     11.364
         INT   67.9                   29.809      2.981     11.364
         TR   0.277E+25               49.681      4.968     21.322
         TOT                          79.4904     7.9490    32.6859   136.7577

       T/K    H(0)-H(T)+PV         H(T)/Eh          T*S/Eh         G(T)/Eh
   ------------------------------------------------------------------------
    298.15    0.413627E-02    0.201207E-01    0.287976E-01   -0.867682E-02
    120.00    0.152125E-02    0.175057E-01    0.100281E-01    0.747766E-02
    100.00    0.126694E-02    0.172514E-01    0.812498E-02    0.912644E-02
     80.00    0.101342E-02    0.169979E-01    0.627377E-02    0.107241E-01
     60.00    0.760056E-03    0.167445E-01    0.448673E-02    0.122578E-01
     40.00    0.506704E-03    0.164912E-01    0.278576E-02    0.137054E-01
     20.00    0.253352E-03    0.162378E-01    0.121732E-02    0.150205E-01
     10.00    0.126676E-03    0.161112E-01    0.520882E-03    0.155903E-01 (used)
   ------------------------------------------------------------------------

         :::::::::::::::::::::::::::::::::::::::::::::::::::::
         ::                  THERMODYNAMIC                  ::
         :::::::::::::::::::::::::::::::::::::::::::::::::::::
         :: total free energy         -10.154354429276 Eh   ::
         ::.................................................::
         :: total energy              -10.169944697665 Eh   ::
         :: zero point energy           0.015984474759 Eh   ::
         :: G(RRHO) w/o ZPVE           -0.000394206369 Eh   ::
         :: G(RRHO) contrib.            0.015590268389 Eh   ::
         :::::::::::::::::::::::::::::::::::::::::::::::::::::

           -------------------------------------------------
          | TOTAL ENERGY              -10.169944697665 Eh   |
          | TOTAL ENTHALPY            -10.153833546891 Eh   |
          | TOTAL FREE ENERGY         -10.154354429276 Eh   |
          | GRADIENT NORM               0.000371398567 Eh/Î± |
          | HOMO-LUMO GAP               1.750794672272 eV   |
           -------------------------------------------------

 * finished run on 2020/05/12 at 11:44:38.728
