   * xtb version 6.2.2 (9d81278992624c895f80dd42a50cac0aa55982e2) compiled by '@Darwin' on 04/03/2020
          program call               : xtb --input C4N1_11_S_1.input C4N1_11_S_1.xyz --ohess --molden --namespace C4N1_11_S_1 output.out
          number of atoms            :                     5
          number of electrons        :                    21
          charge                     :                     0
          spin                       :                   0.5

   ID    Z sym.   atoms
    1    6 C      1, 2, 4, 5
    2    7 N      3

          :  Hamiltonian                  GFN2-xTB          :
 * total energy  :   -10.8569667 Eh     change       -0.8423910E-09 Eh
 * total energy  :   -10.9096273 Eh     change       -0.5266059E-01 Eh
 * total energy  :   -10.9022094 Eh     change        0.7417886E-02 Eh
 * total energy  :   -10.9409407 Eh     change       -0.3873135E-01 Eh
 * total energy  :   -10.9624525 Eh     change       -0.2151177E-01 Eh
 * total energy  :   -10.9941238 Eh     change       -0.3167132E-01 Eh
 * total energy  :   -10.9909641 Eh     change        0.3159778E-02 Eh
 * total energy  :   -11.0212810 Eh     change       -0.3031691E-01 Eh
 * total energy  :   -11.0326665 Eh     change       -0.1138557E-01 Eh
 * total energy  :   -11.0299308 Eh     change        0.2735762E-02 Eh
 * total energy  :   -11.1221043 Eh     change       -0.1227820E-02 Eh
 * total energy  :   -11.1224283 Eh     change       -0.3239885E-03 Eh
 * total energy  :   -11.1228732 Eh     change       -0.4449458E-03 Eh
 * total energy  :   -11.1232331 Eh     change       -0.3599105E-03 Eh
 * total energy  :   -11.1236304 Eh     change       -0.3972580E-03 Eh
 * total energy  :   -11.1237561 Eh     change       -0.1256847E-03 Eh
 * total energy  :   -11.1238025 Eh     change       -0.4637479E-04 Eh
 * total energy  :   -11.1238185 Eh     change       -0.1605631E-04 Eh
 * total energy  :   -11.1238229 Eh     change       -0.4349817E-05 Eh
   *** GEOMETRY OPTIMIZATION CONVERGED AFTER 30 ITERATIONS ***

 final structure:
================
5
 xtb: 6.2.2 (9d81278992624c895f80dd42a50cac0aa55982e2)
C        -1.52133297593279   -0.71148115694871    0.17591256844020
C        -0.25805821594805    0.06139393722454    0.04220707793385
N         1.02286767601306    0.01326474401314   -0.13777882873932
C        -1.43022858929911    0.68608157523513    0.22898097308545
C         2.18675210516689   -0.04926009952411   -0.30932079072018

          :  Hamiltonian                  GFN2-xTB          :
         :: gradient norm              0.000898453885 Eh/a0 ::
         :: HOMO-LUMO gap              1.783046723945 eV    ::
         :: SCC energy               -11.335295597121 Eh    ::
         :: -> dispersion             -0.002806856100 Eh    ::
         :: repulsion energy           0.211472809872 Eh    ::

    * Orbital Energies and Occupations

         #    Occupation            Energy/Eh            Energy/eV
      -------------------------------------------------------------
         1        2.0000           -0.7285958             -19.8261
         2        2.0000           -0.7180380             -19.5388
         3        2.0000           -0.6770230             -18.4227
         4        2.0000           -0.6066678             -16.5083
         5        2.0000           -0.5854825             -15.9318
         6        2.0000           -0.5449769             -14.8296
         7        2.0000           -0.5274789             -14.3534
         8        2.0000           -0.5045952             -13.7307
         9        2.0000           -0.4772964             -12.9879
        10        2.0000           -0.4317717             -11.7491
        11        1.0000           -0.4087137             -11.1217 (HOMO)
        12                         -0.3431882              -9.3386 (LUMO)
        13                         -0.2879135              -7.8345
        14                         -0.2724661              -7.4142
        15                         -0.1990813              -5.4173
        16                         -0.0339422              -0.9236
        17                          0.0374111               1.0180
        18                          0.3007086               8.1827
        19                          0.5612275              15.2718
        20                          1.0699079              29.1137
      -------------------------------------------------------------
                  HL-Gap            0.0655254 Eh            1.7830 eV

     #   Z        covCN         q      C6AA      Î±(0)
     1   6 C      1.958    -0.114    34.247     9.451
     2   6 C      2.875     0.163    24.476     8.110
     3   7 N      1.821     0.060    20.843     6.765
     4   6 C      1.961    -0.017    31.515     9.066
     5   6 C      0.916    -0.093    38.385    10.372

Wiberg/Mayer (AO) data.
largest (>0.10) Wiberg bond orders for each atom
          total WBO             WBO to atom ...

molecular dipole:
                 x           y           z       tot (Debye)
 q only:        0.027       0.161       0.006
   full:        0.063       0.447       0.018       1.147

 projected vibrational frequencies (cm-1)
eigval :       -0.00    -0.00    -0.00     0.00     0.00     0.00
eigval :      187.51   193.23   444.58   489.01   730.74  1010.88
eigval :     1229.48  1810.29  2099.13

   temp. (K)  partition function   enthalpy   heat capacity  entropy
                                   cal/mol     cal/K/mol   cal/K/mol   J/K/mol
  10.00  VIB   1.00                    0.000      0.000     -0.012
         ROT   215.                   29.809      2.981     13.657
         INT   215.                   29.809      2.981     13.645
         TR   0.290E+25               49.681      4.968     21.419
         TOT                          79.4904     7.9490    35.0646   146.7104

       T/K    H(0)-H(T)+PV         H(T)/Eh          T*S/Eh         G(T)/Eh
   ------------------------------------------------------------------------
    298.15    0.558252E-02    0.242518E-01    0.325012E-01   -0.824947E-02
    120.00    0.173403E-02    0.204033E-01    0.107837E-01    0.961955E-02
    100.00    0.139212E-02    0.200614E-01    0.867517E-02    0.113862E-01
     80.00    0.107292E-02    0.197422E-01    0.665567E-02    0.130865E-01
     60.00    0.778396E-03    0.194476E-01    0.473806E-02    0.147096E-01
     40.00    0.508556E-03    0.191778E-01    0.294036E-02    0.162374E-01
     20.00    0.253354E-03    0.189226E-01    0.129335E-02    0.176292E-01
     10.00    0.126676E-03    0.187959E-01    0.558790E-03    0.182371E-01 (used)
   ------------------------------------------------------------------------

         :::::::::::::::::::::::::::::::::::::::::::::::::::::
         ::                  THERMODYNAMIC                  ::
         :::::::::::::::::::::::::::::::::::::::::::::::::::::
         :: total free energy         -11.105585740014 Eh   ::
         ::.................................................::
         :: total energy              -11.123822860707 Eh   ::
         :: zero point energy           0.018669234975 Eh   ::
         :: G(RRHO) w/o ZPVE           -0.000432114282 Eh   ::
         :: G(RRHO) contrib.            0.018237120693 Eh   ::
         :::::::::::::::::::::::::::::::::::::::::::::::::::::

           -------------------------------------------------
          | TOTAL ENERGY              -11.123822860707 Eh   |
          | TOTAL ENTHALPY            -11.105026949716 Eh   |
          | TOTAL FREE ENERGY         -11.105585740014 Eh   |
          | GRADIENT NORM               0.000898373382 Eh/Î± |
          | HOMO-LUMO GAP               1.783038227030 eV   |
           -------------------------------------------------

 * finished run on 2020/05/12 at 11:44:02.499
