   * xtb version 6.2.2 (9d81278992624c895f80dd42a50cac0aa55982e2) compiled by '@Darwin' on 04/03/2020
          program call               : xtb --input C4N1_9_S_1.input C4N1_9_S_1.xyz --ohess --molden --namespace C4N1_9_S_1 output.out
          number of atoms            :                     5
          number of electrons        :                    21
          charge                     :                     0
          spin                       :                   0.5

   ID    Z sym.   atoms
    1    7 N      1
    2    6 C      2-5

          :  Hamiltonian                  GFN2-xTB          :
 * total energy  :   -10.8174355 Eh     change       -0.2407008E-08 Eh
 * total energy  :   -10.8584251 Eh     change       -0.4098955E-01 Eh
 * total energy  :   -10.7458658 Eh     change        0.1125593E+00 Eh
 * total energy  :   -10.9014282 Eh     change       -0.1555624E+00 Eh
 * total energy  :   -10.9095176 Eh     change       -0.8089418E-02 Eh
 * total energy  :   -10.9176621 Eh     change       -0.8144483E-02 Eh
 * total energy  :   -10.9303968 Eh     change       -0.1273467E-01 Eh
 * total energy  :   -10.9427652 Eh     change       -0.1236842E-01 Eh
 * total energy  :   -10.9890779 Eh     change       -0.4631272E-01 Eh
 * total energy  :   -11.0262343 Eh     change       -0.3715638E-01 Eh
 * total energy  :   -11.1478872 Eh     change       -0.2308033E-02 Eh
 * total energy  :   -11.1486097 Eh     change       -0.7224740E-03 Eh
 * total energy  :   -11.1503979 Eh     change       -0.1788259E-02 Eh
 * total energy  :   -11.1510104 Eh     change       -0.6124158E-03 Eh
 * total energy  :   -11.1512406 Eh     change       -0.2302537E-03 Eh
 * total energy  :   -11.1513537 Eh     change       -0.1130928E-03 Eh
 * total energy  :   -11.1514032 Eh     change       -0.4953179E-04 Eh
 * total energy  :   -11.1514119 Eh     change       -0.8653574E-05 Eh
 * total energy  :   -11.1514124 Eh     change       -0.5444603E-06 Eh
   *** GEOMETRY OPTIMIZATION CONVERGED AFTER 30 ITERATIONS ***

 final structure:
================
5
 xtb: 6.2.2 (9d81278992624c895f80dd42a50cac0aa55982e2)
N        -1.92283172198933    1.13442490800113   -0.03671253082698
C        -0.93754557042405    0.54065589675378    0.00619360691419
C         1.15178354321435   -0.95495320606178    0.63848107914140
C         0.23574848775675   -0.16124260378665    0.05205903950878
C         1.47284526144228   -0.55888499490647   -0.66002119473740

          :  Hamiltonian                  GFN2-xTB          :
         :: gradient norm              0.000410329191 Eh/a0 ::
         :: HOMO-LUMO gap              1.739474588828 eV    ::
         :: SCC energy               -11.383282060445 Eh    ::
         :: -> dispersion             -0.002690526479 Eh    ::
         :: repulsion energy           0.231869691521 Eh    ::

    * Orbital Energies and Occupations

         #    Occupation            Energy/Eh            Energy/eV
      -------------------------------------------------------------
         1        2.0000           -0.7291698             -19.8417
         2        2.0000           -0.6931916             -18.8627
         3        2.0000           -0.6564908             -17.8640
         4        2.0000           -0.5969478             -16.2438
         5        2.0000           -0.5623064             -15.3011
         6        2.0000           -0.5380081             -14.6399
         7        2.0000           -0.5258593             -14.3094
         8        2.0000           -0.5132894             -13.9673
         9        2.0000           -0.4708334             -12.8120
        10        2.0000           -0.4425405             -12.0421
        11        1.0000           -0.4204361             -11.4406 (HOMO)
        12                         -0.3565116              -9.7012 (LUMO)
        13                         -0.2964454              -8.0667
        14                         -0.2582139              -7.0264
        15                         -0.1784743              -4.8565
        16                         -0.0271447              -0.7386
        17                          0.0602843               1.6404
        18                          0.3143614               8.5542
        19                          0.5764710              15.6866
        20                          1.1961769              32.5496
      -------------------------------------------------------------
                  HL-Gap            0.0639244 Eh            1.7395 eV

     #   Z        covCN         q      C6AA      Î±(0)
     1   7 N      0.911    -0.161    24.485     7.156
     2   6 C      1.891     0.128    27.973     8.542
     3   6 C      1.961     0.008    30.854     8.970
     4   6 C      2.940     0.113    25.504     8.283
     5   6 C      1.958    -0.089    33.511     9.349

Wiberg/Mayer (AO) data.
largest (>0.10) Wiberg bond orders for each atom
          total WBO             WBO to atom ...

molecular dipole:
                 x           y           z       tot (Debye)
 q only:        0.180      -0.170       0.145
   full:        0.148      -0.269       0.404       1.289

 projected vibrational frequencies (cm-1)
eigval :       -0.00    -0.00    -0.00     0.00     0.00     0.00
eigval :      190.31   201.82   499.76   546.23   706.02   941.45
eigval :     1204.12  1792.95  2300.16

   temp. (K)  partition function   enthalpy   heat capacity  entropy
                                   cal/mol     cal/K/mol   cal/K/mol   J/K/mol
  10.00  VIB   1.00                    0.000      0.000     -0.011
         ROT   234.                   29.809      2.981     13.818
         INT   234.                   29.809      2.981     13.808
         TR   0.290E+25               49.681      4.968     21.419
         TOT                          79.4904     7.9490    35.2272   147.3905

       T/K    H(0)-H(T)+PV         H(T)/Eh          T*S/Eh         G(T)/Eh
   ------------------------------------------------------------------------
    298.15    0.550167E-02    0.245992E-01    0.324186E-01   -0.781941E-02
    120.00    0.171849E-02    0.208160E-01    0.107920E-01    0.100240E-01
    100.00    0.138288E-02    0.204804E-01    0.868779E-02    0.117926E-01
     80.00    0.106814E-02    0.201656E-01    0.666971E-02    0.134959E-01
     60.00    0.776542E-03    0.198740E-01    0.475109E-02    0.151230E-01
     40.00    0.508275E-03    0.196058E-01    0.295030E-02    0.166555E-01
     20.00    0.253353E-03    0.193509E-01    0.129851E-02    0.180523E-01
     10.00    0.126676E-03    0.192242E-01    0.561381E-03    0.186628E-01 (used)
   ------------------------------------------------------------------------

         :::::::::::::::::::::::::::::::::::::::::::::::::::::
         ::                  THERMODYNAMIC                  ::
         :::::::::::::::::::::::::::::::::::::::::::::::::::::
         :: total free energy         -11.132749645981 Eh   ::
         ::.................................................::
         :: total energy              -11.151412442802 Eh   ::
         :: zero point energy           0.019097501754 Eh   ::
         :: G(RRHO) w/o ZPVE           -0.000434704932 Eh   ::
         :: G(RRHO) contrib.            0.018662796821 Eh   ::
         :::::::::::::::::::::::::::::::::::::::::::::::::::::

           -------------------------------------------------
          | TOTAL ENERGY              -11.151412442802 Eh   |
          | TOTAL ENTHALPY            -11.132188265033 Eh   |
          | TOTAL FREE ENERGY         -11.132749645981 Eh   |
          | GRADIENT NORM               0.000410300396 Eh/Î± |
          | HOMO-LUMO GAP               1.739472132222 eV   |
           -------------------------------------------------

 * finished run on 2020/05/12 at 11:44:01.431
