   * xtb version 6.2.2 (9d81278992624c895f80dd42a50cac0aa55982e2) compiled by '@Darwin' on 04/03/2020
          program call               : xtb --input C2O1_0_S_0.input C2O1_0_S_0.xyz --ohess --molden --namespace C2O1_0_S_0 output.out
          number of atoms            :                     3
          number of electrons        :                    14
          charge                     :                     0
          spin                       :                   0.0

   ID    Z sym.   atoms
    1    6 C      1, 2
    2    8 O      3

          :  Hamiltonian                  GFN2-xTB          :
 * total energy  :    -8.0113414 Eh     change        0.8161649E-10 Eh
 * total energy  :    -8.0999120 Eh     change       -0.8857060E-01 Eh
 * total energy  :    -8.1083911 Eh     change       -0.8479072E-02 Eh
 * total energy  :    -8.1190549 Eh     change       -0.1066388E-01 Eh
 * total energy  :    -8.1200284 Eh     change       -0.9735072E-03 Eh
 * total energy  :    -8.1207265 Eh     change       -0.6980935E-03 Eh
 * total energy  :    -8.1215962 Eh     change       -0.8696733E-03 Eh
 * total energy  :    -8.1223104 Eh     change       -0.7141387E-03 Eh
 * total energy  :    -8.1230502 Eh     change       -0.7398438E-03 Eh
 * total energy  :    -8.1226222 Eh     change        0.4279485E-03 Eh
 * total energy  :    -8.1234698 Eh     change       -0.8475907E-03 Eh
 * total energy  :    -8.1235798 Eh     change       -0.1099250E-03 Eh
 * total energy  :    -8.1237325 Eh     change       -0.1527033E-03 Eh
 * total energy  :    -8.1237530 Eh     change       -0.2050096E-04 Eh
 * total energy  :    -8.1237550 Eh     change       -0.2028545E-05 Eh
   *** GEOMETRY OPTIMIZATION CONVERGED AFTER 15 ITERATIONS ***

 final structure:
================
3
 xtb: 6.2.2 (9d81278992624c895f80dd42a50cac0aa55982e2)
C        -0.05151136820737   -0.00135601168031    0.00000000000000
C         1.26666822235416    0.00395754952293    0.00000000000000
O        -1.21515685414679   -0.00260153784262    0.00000000000000

          :  Hamiltonian                  GFN2-xTB          :
         :: gradient norm              0.000694247010 Eh/a0 ::
         :: HOMO-LUMO gap              0.000002694167 eV    ::
         :: SCC energy                -8.229304119145 Eh    ::
         :: -> dispersion             -0.000841092894 Eh    ::
         :: repulsion energy           0.105549126942 Eh    ::

    * Orbital Energies and Occupations

         #    Occupation            Energy/Eh            Energy/eV
      -------------------------------------------------------------
         1        2.0000           -0.8001130             -21.7722
         2        2.0000           -0.7012138             -19.0810
         3        2.0000           -0.6300275             -17.1439
         4        2.0000           -0.6250674             -17.0089
         5        2.0000           -0.6250662             -17.0089
         6        2.0000           -0.4718894             -12.8408
         7        1.0000           -0.4326249             -11.7723 (HOMO)
         8        1.0000           -0.4326248             -11.7723 (LUMO)
         9                         -0.2222944              -6.0489
Molecule has the following symmetry elements: (Cinf) (sigma)
It seems to be the Cinfv point group
        10                         -0.2222931              -6.0489
        11                          0.2171610               5.9093
        12                          1.0468045              28.4850
      -------------------------------------------------------------
                  HL-Gap            0.0000001 Eh            0.0000 eV

     #   Z        covCN         q      C6AA      Î±(0)
     1   6 C      1.836     0.292    24.536     8.002
     2   6 C      0.981    -0.156    41.019    10.757
     3   8 O      0.856    -0.136    17.062     5.538

Wiberg/Mayer (AO) data.
largest (>0.10) Wiberg bond orders for each atom
          total WBO             WBO to atom ...

molecular dipole:
                 x           y           z       tot (Debye)
 q only:       -0.088      -0.001       0.000
   full:       -0.490      -0.004       0.000       1.245

   temp. (K)  partition function   enthalpy   heat capacity  entropy
                                   cal/mol     cal/K/mol   cal/K/mol   J/K/mol
  10.00  VIB   1.00                    0.000      0.000     -0.004
         ROT   17.5                   19.873      1.987      7.670
         INT   17.5                   19.873      1.987      7.666
         TR   0.150E+25               49.681      4.968     20.113
         TOT                          69.5541     6.9554    27.7787   116.2259

       T/K    H(0)-H(T)+PV         H(T)/Eh          T*S/Eh         G(T)/Eh
   ------------------------------------------------------------------------
    298.15    0.428675E-02    0.130623E-01    0.260651E-01   -0.130028E-01
    120.00    0.144779E-02    0.102234E-01    0.877310E-02    0.145028E-02
    100.00    0.117127E-02    0.994686E-02    0.705911E-02    0.288774E-02
     80.00    0.911721E-03    0.968730E-02    0.541596E-02    0.427135E-02
     60.00    0.670521E-03    0.944610E-02    0.385417E-02    0.559193E-02
     40.00    0.443632E-03    0.921922E-02    0.238571E-02    0.683350E-02
     20.00    0.221683E-03    0.899727E-02    0.103904E-02    0.795823E-02
     10.00    0.110842E-03    0.888642E-02    0.442681E-03    0.844374E-02 (used)
   ------------------------------------------------------------------------

         :::::::::::::::::::::::::::::::::::::::::::::::::::::
         ::                  THERMODYNAMIC                  ::
         :::::::::::::::::::::::::::::::::::::::::::::::::::::
         :: total free energy          -8.115311251982 Eh   ::
         ::.................................................::
         :: total energy               -8.123754995299 Eh   ::
         :: zero point energy           0.008775582841 Eh   ::
         :: G(RRHO) w/o ZPVE           -0.000331839523 Eh   ::
         :: G(RRHO) contrib.            0.008443743317 Eh   ::
         :::::::::::::::::::::::::::::::::::::::::::::::::::::

           -------------------------------------------------
          | TOTAL ENERGY               -8.123754995299 Eh   |
          | TOTAL ENTHALPY             -8.114868570945 Eh   |
          | TOTAL FREE ENERGY          -8.115311251982 Eh   |
          | GRADIENT NORM               0.000694188659 Eh/Î± |
          | HOMO-LUMO GAP               0.000002692829 eV   |
           -------------------------------------------------

 * finished run on 2020/05/12 at 11:43:50.577
