   * xtb version 6.2.2 (9d81278992624c895f80dd42a50cac0aa55982e2) compiled by '@Darwin' on 04/03/2020
          program call               : xtb --input C2N1_0_S_3.input C2N1_0_S_3.xyz --ohess --molden --namespace C2N1_0_S_3 output.out
          number of atoms            :                     3
          number of electrons        :                    13
          charge                     :                     0
          spin                       :                   1.5

   ID    Z sym.   atoms
    1    6 C      1, 3
    2    7 N      2

          :  Hamiltonian                  GFN2-xTB          :
 * total energy  :    -6.7298617 Eh     change        0.4232970E-10 Eh
 * total energy  :    -6.8301191 Eh     change       -0.1002575E+00 Eh
 * total energy  :    -6.8408525 Eh     change       -0.1073341E-01 Eh
 * total energy  :    -6.8819180 Eh     change       -0.4106542E-01 Eh
 * total energy  :    -6.8864488 Eh     change       -0.4530804E-02 Eh
 * total energy  :    -6.8881191 Eh     change       -0.1670366E-02 Eh
 * total energy  :    -6.8883960 Eh     change       -0.2768396E-03 Eh
 * total energy  :    -6.8884107 Eh     change       -0.1474529E-04 Eh
 * total energy  :    -6.8884110 Eh     change       -0.2728468E-06 Eh
   *** GEOMETRY OPTIMIZATION CONVERGED AFTER 9 ITERATIONS ***

 final structure:
================
3
 xtb: 6.2.2 (9d81278992624c895f80dd42a50cac0aa55982e2)
C        -0.02880240450299   -0.00050082638536   -0.00000000000000
N        -1.22064860465974   -0.00332423518699    0.00000000000000
C         1.24945100916272    0.00382506157235    0.00000000000000

          :  Hamiltonian                  GFN2-xTB          :
         :: gradient norm              0.000398950903 Eh/a0 ::
         :: HOMO-LUMO gap              6.155213530634 eV    ::
         :: SCC energy                -7.030420895446 Eh    ::
         :: -> dispersion             -0.000921970716 Eh    ::
         :: repulsion energy           0.142009908990 Eh    ::

    * Orbital Energies and Occupations

         #    Occupation            Energy/Eh            Energy/eV
      -------------------------------------------------------------
         1        2.0000           -0.6916982             -18.8221
         2        2.0000           -0.6598900             -17.9565
         3        2.0000           -0.5395146             -14.6809
         4        2.0000           -0.5395146             -14.6809
         5        2.0000           -0.5110663             -13.9068
         6        1.0000           -0.4523759             -12.3098
         7        1.0000           -0.4126826             -11.2297
         8        1.0000           -0.4126825             -11.2297 (HOMO)
         9                         -0.1864826              -5.0745 (LUMO)
        10                         -0.1864825              -5.0744
        11                          0.3027859               8.2392
        12                          1.1459135              31.1819
      -------------------------------------------------------------
                  HL-Gap            0.2261999 Eh            6.1552 eV

     #   Z        covCN         q      C6AA      Î±(0)
     1   6 C      1.891     0.151    27.446     8.461
     2   7 N      0.912    -0.108    23.366     6.990
     3   6 C      0.983    -0.043    37.250    10.252

Wiberg/Mayer (AO) data.
largest (>0.10) Wiberg bond orders for each atom
          total WBO             WBO to atom ...

molecular dipole:
                 x           y           z       tot (Debye)
 q only:        0.140       0.000      -0.000
   full:        0.340       0.001      -0.000       0.865

   temp. (K)  partition function   enthalpy   heat capacity  entropy
                                   cal/mol     cal/K/mol   cal/K/mol   J/K/mol
  10.00  VIB   1.00                    0.000      0.000     -0.001
         ROT   16.3                   19.873      1.987      7.531
         INT   16.3                   19.873      1.987      7.530
         TR   0.139E+25               49.681      4.968     19.961
         TOT                          69.5541     6.9554    27.4909   115.0221

       T/K    H(0)-H(T)+PV         H(T)/Eh          T*S/Eh         G(T)/Eh
   ------------------------------------------------------------------------
    298.15    0.387142E-02    0.133554E-01    0.250955E-01   -0.117401E-01
    120.00    0.135216E-02    0.108361E-01    0.858763E-02    0.224848E-02
    100.00    0.111620E-02    0.106002E-01    0.694145E-02    0.365870E-02
     80.00    0.888369E-03    0.103723E-01    0.534997E-02    0.502235E-02
     60.00    0.665171E-03    0.101491E-01    0.381996E-02    0.632916E-02
     40.00    0.443367E-03    0.992732E-02    0.236684E-02    0.756048E-02
     20.00    0.221683E-03    0.970564E-02    0.102981E-02    0.867583E-02
     10.00    0.110842E-03    0.959479E-02    0.438096E-03    0.915670E-02 (used)
   ------------------------------------------------------------------------

         :::::::::::::::::::::::::::::::::::::::::::::::::::::
         ::                  THERMODYNAMIC                  ::
         :::::::::::::::::::::::::::::::::::::::::::::::::::::
         :: total free energy          -6.879254290944 Eh   ::
         ::.................................................::
         :: total energy               -6.888410989835 Eh   ::
         :: zero point energy           0.009483953320 Eh   ::
         :: G(RRHO) w/o ZPVE           -0.000327254429 Eh   ::
         :: G(RRHO) contrib.            0.009156698891 Eh   ::
         :::::::::::::::::::::::::::::::::::::::::::::::::::::

           -------------------------------------------------
          | TOTAL ENERGY               -6.888410989835 Eh   |
          | TOTAL ENTHALPY             -6.878816195001 Eh   |
          | TOTAL FREE ENERGY          -6.879254290944 Eh   |
          | GRADIENT NORM               0.000399100199 Eh/Î± |
          | HOMO-LUMO GAP               6.155212433592 eV   |
           -------------------------------------------------

 * finished run on 2020/05/12 at 11:43:53.800
