   * xtb version 6.2.2 (9d81278992624c895f80dd42a50cac0aa55982e2) compiled by '@Darwin' on 04/03/2020
          program call               : xtb --input C3O1_5_S_0.input C3O1_5_S_0.xyz --ohess --molden --namespace C3O1_5_S_0 output.out
          number of atoms            :                     4
          number of electrons        :                    18
          charge                     :                     0
          spin                       :                   0.0

   ID    Z sym.   atoms
    1    6 C      1-3
    2    8 O      4

          :  Hamiltonian                  GFN2-xTB          :
 * total energy  :   -10.0705567 Eh     change       -0.9985772E-09 Eh
 * total energy  :   -10.1148451 Eh     change       -0.4428837E-01 Eh
 * total energy  :   -10.0564161 Eh     change        0.5842898E-01 Eh
 * total energy  :   -10.1550521 Eh     change       -0.9863606E-01 Eh
 * total energy  :   -10.1572449 Eh     change       -0.2192725E-02 Eh
 * total energy  :   -10.1581123 Eh     change       -0.8674014E-03 Eh
 * total energy  :   -10.1581444 Eh     change       -0.3211373E-04 Eh
 * total energy  :   -10.1581468 Eh     change       -0.2464418E-05 Eh
   *** GEOMETRY OPTIMIZATION CONVERGED AFTER 8 ITERATIONS ***

 final structure:
================
4
 xtb: 6.2.2 (9d81278992624c895f80dd42a50cac0aa55982e2)
C        -0.64030065801468   -0.38068680064716   -0.03866654621664
C        -0.58703779647629    1.01862238621644   -0.06929470450095
C         0.64808368792109    0.36716238729255    0.03980959455312
O         0.57925476656988   -1.00509797286183    0.06815165616447

          :  Hamiltonian                  GFN2-xTB          :
         :: gradient norm              0.000871707266 Eh/a0 ::
         :: HOMO-LUMO gap              2.102263703913 eV    ::
         :: SCC energy               -10.257629928426 Eh    ::
         :: -> dispersion             -0.001577899433 Eh    ::
         :: repulsion energy           0.099483083976 Eh    ::

    * Orbital Energies and Occupations

         #    Occupation            Energy/Eh            Energy/eV
      -------------------------------------------------------------
         1        2.0000           -0.8130020             -22.1229
         2        2.0000           -0.7283294             -19.8189
         3        2.0000           -0.6737126             -18.3327
         4        2.0000           -0.6333542             -17.2344
         5        2.0000           -0.6254936             -17.0205
         6        2.0000           -0.5810985             -15.8125
         7        2.0000           -0.4854081             -13.2086
         8        2.0000           -0.4650277             -12.6540
         9        2.0000           -0.4484594             -12.2032 (HOMO)
        10                         -0.3712015             -10.1009 (LUMO)
        11                         -0.3316280              -9.0241
        12                         -0.2605033              -7.0887
        13                          0.0720157               1.9596
        14                          0.1097222               2.9857
        15                          0.2004936               5.4557
        16                          0.3774726              10.2716
      -------------------------------------------------------------
                  HL-Gap            0.0772579 Eh            2.1023 eV

     #   Z        covCN         q      C6AA      Î±(0)
     1   6 C      2.810     0.158    24.563     8.120
     2   6 C      1.962    -0.137    34.918     9.543
     3   6 C      2.810     0.158    24.563     8.120
     4   8 O      1.707    -0.180    17.026     5.571

Wiberg/Mayer (AO) data.
largest (>0.10) Wiberg bond orders for each atom
          total WBO             WBO to atom ...

molecular dipole:
                 x           y           z       tot (Debye)
 q only:       -0.043       0.075      -0.005
   full:        0.305      -0.529       0.036       1.555

 projected vibrational frequencies (cm-1)
eigval :       -0.00    -0.00    -0.00     0.00     0.00     0.00
eigval :     -396.86   394.53   470.41   934.96  1365.83  1514.50

   temp. (K)  partition function   enthalpy   heat capacity  entropy
                                   cal/mol     cal/K/mol   cal/K/mol   J/K/mol
  10.00  VIB   1.00                    0.000      0.000     -0.001
         ROT   37.8                   29.809      2.981     10.197
         INT   37.8                   29.809      2.981     10.197
         TR   0.223E+25               49.681      4.968     20.895
         TOT                          79.4904     7.9490    31.0914   130.0864

       T/K    H(0)-H(T)+PV         H(T)/Eh          T*S/Eh         G(T)/Eh
   ------------------------------------------------------------------------
    298.15    0.439898E-02    0.150613E-01    0.284813E-01   -0.134200E-01
    120.00    0.154381E-02    0.122062E-01    0.975047E-02    0.245568E-02
    100.00    0.127541E-02    0.119377E-01    0.788091E-02    0.405684E-02
     80.00    0.101535E-02    0.116777E-01    0.607278E-02    0.560491E-02
     60.00    0.760223E-03    0.114226E-01    0.433451E-02    0.708805E-02
     40.00    0.506705E-03    0.111690E-01    0.268415E-02    0.848489E-02
     20.00    0.253352E-03    0.109157E-01    0.116651E-02    0.974918E-02
     10.00    0.126676E-03    0.107890E-01    0.495473E-03    0.102935E-01 (used)
   ------------------------------------------------------------------------

         :::::::::::::::::::::::::::::::::::::::::::::::::::::
         ::                  THERMODYNAMIC                  ::
         :::::::::::::::::::::::::::::::::::::::::::::::::::::
         :: total free energy         -10.147853303216 Eh   ::
         ::.................................................::
         :: total energy              -10.158146842202 Eh   ::
         :: zero point energy           0.010662335816 Eh   ::
         :: G(RRHO) w/o ZPVE           -0.000368796830 Eh   ::
         :: G(RRHO) contrib.            0.010293538986 Eh   ::
         :::::::::::::::::::::::::::::::::::::::::::::::::::::

           -------------------------------------------------
          | TOTAL ENERGY              -10.158146842202 Eh   |
          | TOTAL ENTHALPY            -10.147357830371 Eh   |
          | TOTAL FREE ENERGY         -10.147853303216 Eh   |
          | GRADIENT NORM               0.000873339443 Eh/Î± |
          | HOMO-LUMO GAP               2.102293981775 eV   |
           -------------------------------------------------

 * finished run on 2020/05/12 at 11:45:19.259
