   * xtb version 6.2.2 (9d81278992624c895f80dd42a50cac0aa55982e2) compiled by '@Darwin' on 04/03/2020
          program call               : xtb --input C5_19_S_0.input C5_19_S_0.xyz --ohess --molden --namespace C5_19_S_0 output.out
          number of atoms            :                     5
          number of electrons        :                    20
          charge                     :                     0
          spin                       :                   0.0

   ID    Z sym.   atoms
    1    6 C      1-5

          :  Hamiltonian                  GFN2-xTB          :
 * total energy  :   -10.1364904 Eh     change       -0.6715274E-08 Eh
 * total energy  :   -10.1672357 Eh     change       -0.3074529E-01 Eh
 * total energy  :   -10.2408839 Eh     change       -0.7364819E-01 Eh
 * total energy  :   -10.2456870 Eh     change       -0.4803168E-02 Eh
 * total energy  :   -10.2474927 Eh     change       -0.1805700E-02 Eh
 * total energy  :   -10.2475113 Eh     change       -0.1854027E-04 Eh
 * total energy  :   -10.2475113 Eh     change       -0.4349943E-07 Eh
   *** GEOMETRY OPTIMIZATION CONVERGED AFTER 7 ITERATIONS ***

 final structure:
================
5
 xtb: 6.2.2 (9d81278992624c895f80dd42a50cac0aa55982e2)
C         0.94277032562820    0.01848844912039   -0.01526351723379
C         0.01937920558527   -0.08603546669610    1.09277972693369
C        -0.94277083343170   -0.01848981392237    0.01526223893458
C         0.00765910800332   -0.90332274757809   -0.62120468929212
C        -0.02703680578509    0.98935957907617   -0.47157375934236

          :  Hamiltonian                  GFN2-xTB          :
         :: gradient norm              0.000104797186 Eh/a0 ::
         :: HOMO-LUMO gap              2.779675110014 eV    ::
         :: SCC energy               -10.391880457006 Eh    ::
         :: -> dispersion             -0.002395539808 Eh    ::
         :: repulsion energy           0.144369124437 Eh    ::

    * Orbital Energies and Occupations

         #    Occupation            Energy/Eh            Energy/eV
      -------------------------------------------------------------
         1        2.0000           -0.7769116             -21.1408
         2        2.0000           -0.6564085             -17.8618
         3        2.0000           -0.6564081             -17.8618
         4        2.0000           -0.6479921             -17.6328
         5        2.0000           -0.5376372             -14.6299
         6        2.0000           -0.5376366             -14.6298
         7        2.0000           -0.4991486             -13.5825
         8        2.0000           -0.4781579             -13.0113
         9        2.0000           -0.4751098             -12.9284
        10        2.0000           -0.4751097             -12.9284 (HOMO)
        11                         -0.3729585             -10.1487 (LUMO)
        12                         -0.3267438              -8.8912
        13                         -0.3267430              -8.8911
        14                         -0.2969948              -8.0816
        15                          0.0152645               0.4154
        16                          0.0152659               0.4154
        17                          0.1092511               2.9729
        18                          0.1092516               2.9729
        19                          0.1405019               3.8233
        20                          0.5507308              14.9861
      -------------------------------------------------------------
                  HL-Gap            0.1021512 Eh            2.7797 eV

     #   Z        covCN         q      C6AA      Î±(0)
     1   6 C      3.651     0.080    19.541     6.349
     2   6 C      3.340    -0.054    26.660     8.167
     3   6 C      3.651     0.080    19.541     6.349
     4   6 C      3.340    -0.054    26.660     8.167
     5   6 C      3.340    -0.054    26.660     8.167

Wiberg/Mayer (AO) data.
largest (>0.10) Wiberg bond orders for each atom
          total WBO             WBO to atom ...

molecular dipole:
                 x           y           z       tot (Debye)
 q only:        0.000      -0.000      -0.000
   full:        0.000      -0.000      -0.000       0.000

 projected vibrational frequencies (cm-1)
eigval :       -0.00    -0.00    -0.00     0.00     0.00     0.00
eigval :      465.26   465.65   664.16   882.70   882.70  1123.82
eigval :     1136.75  1137.18  1398.49

   temp. (K)  partition function   enthalpy   heat capacity  entropy
                                   cal/mol     cal/K/mol   cal/K/mol   J/K/mol
  10.00  VIB   1.00                    0.000      0.000     -0.001
         ROT   22.1                   29.809      2.981      9.136
         INT   22.1                   29.809      2.981      9.136
         TR   0.277E+25               49.681      4.968     21.322
         TOT                          79.4904     7.9490    30.4575   127.4342

       T/K    H(0)-H(T)+PV         H(T)/Eh          T*S/Eh         G(T)/Eh
   ------------------------------------------------------------------------
    298.15    0.459521E-02    0.231776E-01    0.283989E-01   -0.522137E-02
    120.00    0.153744E-02    0.201198E-01    0.962115E-02    0.104986E-01
    100.00    0.127224E-02    0.198546E-01    0.777606E-02    0.120785E-01
     80.00    0.101441E-02    0.195968E-01    0.599086E-02    0.136059E-01
     60.00    0.760117E-03    0.193425E-01    0.427377E-02    0.150687E-01
     40.00    0.506704E-03    0.190891E-01    0.264374E-02    0.164453E-01
     20.00    0.253352E-03    0.188357E-01    0.114631E-02    0.176894E-01
     10.00    0.126676E-03    0.187090E-01    0.485371E-03    0.182237E-01 (used)
   ------------------------------------------------------------------------

         :::::::::::::::::::::::::::::::::::::::::::::::::::::
         ::                  THERMODYNAMIC                  ::
         :::::::::::::::::::::::::::::::::::::::::::::::::::::
         :: total free energy         -10.229287655983 Eh   ::
         ::.................................................::
         :: total energy              -10.247511315205 Eh   ::
         :: zero point energy           0.018582354482 Eh   ::
         :: G(RRHO) w/o ZPVE           -0.000358695259 Eh   ::
         :: G(RRHO) contrib.            0.018223659223 Eh   ::
         :::::::::::::::::::::::::::::::::::::::::::::::::::::

           -------------------------------------------------
          | TOTAL ENERGY              -10.247511315205 Eh   |
          | TOTAL ENTHALPY            -10.228802284708 Eh   |
          | TOTAL FREE ENERGY         -10.229287655983 Eh   |
          | GRADIENT NORM               0.000104789395 Eh/Î± |
          | HOMO-LUMO GAP               2.779676212861 eV   |
           -------------------------------------------------

 * finished run on 2020/05/12 at 11:44:39.879
