   * xtb version 6.2.2 (9d81278992624c895f80dd42a50cac0aa55982e2) compiled by '@Darwin' on 04/03/2020
          program call               : xtb --input C4N1_18_S_1.input C4N1_18_S_1.xyz --ohess --molden --namespace C4N1_18_S_1 output.out
          number of atoms            :                     5
          number of electrons        :                    21
          charge                     :                     0
          spin                       :                   0.5

   ID    Z sym.   atoms
    1    6 C      1-4
    2    7 N      5

          :  Hamiltonian                  GFN2-xTB          :
 * total energy  :   -10.9675358 Eh     change        0.3236309E-09 Eh
 * total energy  :   -11.0414335 Eh     change       -0.7389771E-01 Eh
 * total energy  :   -11.0371062 Eh     change        0.4327301E-02 Eh
 * total energy  :   -11.0712094 Eh     change       -0.3410326E-01 Eh
 * total energy  :   -11.0739842 Eh     change       -0.2774737E-02 Eh
 * total energy  :   -11.0752728 Eh     change       -0.1288647E-02 Eh
 * total energy  :   -11.0760487 Eh     change       -0.7758741E-03 Eh
 * total energy  :   -11.0761385 Eh     change       -0.8980933E-04 Eh
 * total energy  :   -11.0761993 Eh     change       -0.6077560E-04 Eh
 * total energy  :   -11.0762025 Eh     change       -0.3256914E-05 Eh
 * total energy  :   -11.0762055 Eh     change       -0.3002671E-05 Eh
   *** GEOMETRY OPTIMIZATION CONVERGED AFTER 11 ITERATIONS ***

 final structure:
================
5
 xtb: 6.2.2 (9d81278992624c895f80dd42a50cac0aa55982e2)
C        -0.51465422001970    0.83444993984195    0.11862027745086
C         0.67801510433343   -0.03607583625466    0.15707285747786
C        -0.59094744270375   -0.78762016120356    0.07539333394838
C         1.95065788986384   -0.09055278213218   -0.04481193317831
N        -1.52307233147381    0.07979883974846   -0.30627553569878

          :  Hamiltonian                  GFN2-xTB          :
         :: gradient norm              0.000459760373 Eh/a0 ::
         :: HOMO-LUMO gap              1.211814548299 eV    ::
         :: SCC energy               -11.240375463376 Eh    ::
         :: -> dispersion             -0.002847456699 Eh    ::
         :: repulsion energy           0.164169938935 Eh    ::

    * Orbital Energies and Occupations

         #    Occupation            Energy/Eh            Energy/eV
      -------------------------------------------------------------
         1        2.0000           -0.7713703             -20.9901
         2        2.0000           -0.6929821             -18.8570
         3        2.0000           -0.6453779             -17.5616
         4        2.0000           -0.6428937             -17.4940
         5        2.0000           -0.5966963             -16.2369
         6        2.0000           -0.5740883             -15.6217
         7        2.0000           -0.5023276             -13.6690
         8        2.0000           -0.4851044             -13.2004
         9        2.0000           -0.4729195             -12.8688
        10        2.0000           -0.4496065             -12.2344
        11        1.0000           -0.4203164             -11.4374 (HOMO)
        12                         -0.3757832             -10.2256 (LUMO)
        13                         -0.3433082              -9.3419
        14                         -0.2800389              -7.6202
        15                         -0.2091451              -5.6911
        16                          0.0794762               2.1627
        17                          0.1323071               3.6003
        18                          0.1841061               5.0098
        19                          0.2759994               7.5103
        20                          0.7496398              20.3987
      -------------------------------------------------------------
                  HL-Gap            0.0445332 Eh            1.2118 eV

     #   Z        covCN         q      C6AA      Î±(0)
     1   6 C      2.847     0.068    26.473     8.432
     2   6 C      2.981     0.087    26.062     8.374
     3   6 C      2.847     0.068    26.473     8.432
     4   6 C      0.981    -0.126    39.975    10.620
     5   7 N      1.864    -0.097    23.894     7.245

Wiberg/Mayer (AO) data.
largest (>0.10) Wiberg bond orders for each atom
          total WBO             WBO to atom ...

molecular dipole:
                 x           y           z       tot (Debye)
 q only:       -0.215       0.007       0.117
   full:       -0.431       0.014       0.236       1.250

 projected vibrational frequencies (cm-1)
eigval :       -0.00    -0.00     0.00     0.00     0.00     0.00
eigval :      192.33   208.50   453.06   591.21   669.66   801.96
eigval :     1050.57  1538.60  1754.67

   temp. (K)  partition function   enthalpy   heat capacity  entropy
                                   cal/mol     cal/K/mol   cal/K/mol   J/K/mol
  10.00  VIB   1.00                    0.000      0.000     -0.010
         ROT   195.                   29.809      2.981     13.463
         INT   195.                   29.809      2.981     13.453
         TR   0.290E+25               49.681      4.968     21.419
         TOT                          79.4904     7.9490    34.8726   145.9068

       T/K    H(0)-H(T)+PV         H(T)/Eh          T*S/Eh         G(T)/Eh
   ------------------------------------------------------------------------
    298.15    0.556278E-02    0.221036E-01    0.323164E-01   -0.102128E-01
    120.00    0.171465E-02    0.182554E-01    0.107169E-01    0.753857E-02
    100.00    0.137913E-02    0.179199E-01    0.862526E-02    0.929466E-02
     80.00    0.106544E-02    0.176062E-01    0.662063E-02    0.109856E-01
     60.00    0.775334E-03    0.173161E-01    0.471557E-02    0.126006E-01
     40.00    0.508098E-03    0.170489E-01    0.292744E-02    0.141214E-01
     20.00    0.253353E-03    0.167941E-01    0.128719E-02    0.155069E-01
     10.00    0.126676E-03    0.166675E-01    0.555730E-03    0.161117E-01 (used)
   ------------------------------------------------------------------------

         :::::::::::::::::::::::::::::::::::::::::::::::::::::
         ::                  THERMODYNAMIC                  ::
         :::::::::::::::::::::::::::::::::::::::::::::::::::::
         :: total free energy         -11.060093801329 Eh   ::
         ::.................................................::
         :: total energy              -11.076205534468 Eh   ::
         :: zero point energy           0.016540786813 Eh   ::
         :: G(RRHO) w/o ZPVE           -0.000429053674 Eh   ::
         :: G(RRHO) contrib.            0.016111733139 Eh   ::
         :::::::::::::::::::::::::::::::::::::::::::::::::::::

           -------------------------------------------------
          | TOTAL ENERGY              -11.076205534468 Eh   |
          | TOTAL ENTHALPY            -11.059538071639 Eh   |
          | TOTAL FREE ENERGY         -11.060093801329 Eh   |
          | GRADIENT NORM               0.000458660773 Eh/Î± |
          | HOMO-LUMO GAP               1.211810460800 eV   |
           -------------------------------------------------

 * finished run on 2020/05/12 at 11:44:05.868
