   * xtb version 6.2.2 (9d81278992624c895f80dd42a50cac0aa55982e2) compiled by '@Darwin' on 04/03/2020
          program call               : xtb --input H2C1N2_1_S_0.input H2C1N2_1_S_0.xyz --ohess --molden --namespace H2C1N2_1_S_0 output.out
          number of atoms            :                     5
          number of electrons        :                    16
          charge                     :                     0
          spin                       :                   0.0

   ID    Z sym.   atoms
    1    7 N      1, 3
    2    6 C      2
    3    1 H      4, 5

          :  Hamiltonian                  GFN2-xTB          :
 * total energy  :    -8.6789326 Eh     change       -0.4496865E-09 Eh
 * total energy  :    -8.7267061 Eh     change       -0.4777352E-01 Eh
 * total energy  :    -8.7704170 Eh     change       -0.4371083E-01 Eh
 * total energy  :    -8.7770079 Eh     change       -0.6590903E-02 Eh
 * total energy  :    -8.7831394 Eh     change       -0.6131494E-02 Eh
 * total energy  :    -8.7849701 Eh     change       -0.1830750E-02 Eh
 * total energy  :    -8.7874230 Eh     change       -0.2452923E-02 Eh
 * total energy  :    -8.7884970 Eh     change       -0.1073957E-02 Eh
 * total energy  :    -8.7892371 Eh     change       -0.7400966E-03 Eh
 * total energy  :    -8.7896173 Eh     change       -0.3802199E-03 Eh
 * total energy  :    -8.7897517 Eh     change       -0.1344047E-03 Eh
 * total energy  :    -8.7897634 Eh     change       -0.1169894E-04 Eh
 * total energy  :    -8.7897687 Eh     change       -0.5244851E-05 Eh
 * total energy  :    -8.7897691 Eh     change       -0.4727677E-06 Eh
   *** GEOMETRY OPTIMIZATION CONVERGED AFTER 14 ITERATIONS ***

 final structure:
================
5
 xtb: 6.2.2 (9d81278992624c895f80dd42a50cac0aa55982e2)
N        -0.40376675890536    0.33753730278413    0.10010853134742
C         0.66386967351755   -0.40094488152732    0.30492845086206
N        -0.89162799834885   -0.76019315157946   -0.21815864942207
H        -0.80568817915042    1.26383406265213    0.26390299752469
H         1.43721326288708   -0.44023433232947   -0.45078033031209

          :  Hamiltonian                  GFN2-xTB          :
         :: gradient norm              0.000306039523 Eh/a0 ::
         :: HOMO-LUMO gap              1.321570931883 eV    ::
         :: SCC energy                -8.884410435949 Eh    ::
         :: -> dispersion             -0.001454612523 Eh    ::
         :: repulsion energy           0.094641269488 Eh    ::

    * Orbital Energies and Occupations

         #    Occupation            Energy/Eh            Energy/eV
      -------------------------------------------------------------
         1        2.0000           -0.7240194             -19.7016
         2        2.0000           -0.6395795             -17.4038
         3        2.0000           -0.6240352             -16.9809
         4        2.0000           -0.5780706             -15.7301
         5        2.0000           -0.5082550             -13.8303
         6        2.0000           -0.4586345             -12.4801
         7        2.0000           -0.4172086             -11.3528
         8        2.0000           -0.3534938              -9.6191 (HOMO)
         9                         -0.3049268              -8.2975 (LUMO)
        10                         -0.1832525              -4.9866
        11                         -0.0129782              -0.3532
        12                          0.1975671               5.3761
        13                          0.2423348               6.5943
        14                          0.5160565              14.0426
      -------------------------------------------------------------
                  HL-Gap            0.0485670 Eh            1.3216 eV

     #   Z        covCN         q      C6AA      Î±(0)
     1   7 N      2.750     0.157    18.592     6.404
     2   6 C      2.680    -0.104    30.585     9.050
     3   7 N      1.825    -0.254    27.448     7.763
     4   1 H      0.859     0.149     1.405     1.857
     5   1 H      0.925     0.050     2.317     2.380

Wiberg/Mayer (AO) data.
largest (>0.10) Wiberg bond orders for each atom
          total WBO             WBO to atom ...

molecular dipole:
                 x           y           z       tot (Debye)
 q only:        0.086       0.858       0.106
   full:        0.026       1.354      -0.093       3.451

 projected vibrational frequencies (cm-1)
eigval :       -0.00    -0.00    -0.00    -0.00     0.00     0.00
eigval :      627.23   741.54   872.77   927.42  1093.29  1440.93
eigval :     1612.42  2991.95  3173.23

   temp. (K)  partition function   enthalpy   heat capacity  entropy
                                   cal/mol     cal/K/mol   cal/K/mol   J/K/mol
  10.00  VIB   1.00                    0.000      0.000     -0.000
         ROT   42.3                   29.809      2.981     10.424
         INT   42.3                   29.809      2.981     10.424
         TR   0.162E+25               49.681      4.968     20.259
         TOT                          79.4904     7.9490    30.6837   128.3806

       T/K    H(0)-H(T)+PV         H(T)/Eh          T*S/Eh         G(T)/Eh
   ------------------------------------------------------------------------
    298.15    0.416292E-02    0.348744E-01    0.278882E-01    0.698614E-02
    120.00    0.152231E-02    0.322338E-01    0.964641E-02    0.225874E-01
    100.00    0.126720E-02    0.319787E-01    0.780622E-02    0.241724E-01
     80.00    0.101345E-02    0.317249E-01    0.601856E-02    0.257064E-01
     60.00    0.760057E-03    0.314715E-01    0.429529E-02    0.271762E-01
     40.00    0.506704E-03    0.312182E-01    0.265814E-02    0.285600E-01
     20.00    0.253352E-03    0.309648E-01    0.115351E-02    0.298113E-01
     10.00    0.126676E-03    0.308381E-01    0.488976E-03    0.303492E-01 (used)
   ------------------------------------------------------------------------

         :::::::::::::::::::::::::::::::::::::::::::::::::::::
         ::                  THERMODYNAMIC                  ::
         :::::::::::::::::::::::::::::::::::::::::::::::::::::
         :: total free energy          -8.759419981994 Eh   ::
         ::.................................................::
         :: total energy               -8.789769139694 Eh   ::
         :: zero point energy           0.030711457645 Eh   ::
         :: G(RRHO) w/o ZPVE           -0.000362299945 Eh   ::
         :: G(RRHO) contrib.            0.030349157700 Eh   ::
         :::::::::::::::::::::::::::::::::::::::::::::::::::::

           -------------------------------------------------
          | TOTAL ENERGY               -8.789769139694 Eh   |
          | TOTAL ENTHALPY             -8.758931006033 Eh   |
          | TOTAL FREE ENERGY          -8.759419981994 Eh   |
          | GRADIENT NORM               0.000308126048 Eh/Î± |
          | HOMO-LUMO GAP               1.321576460476 eV   |
           -------------------------------------------------

 * finished run on 2020/05/12 at 11:45:20.363
