   * xtb version 6.2.2 (9d81278992624c895f80dd42a50cac0aa55982e2) compiled by '@Darwin' on 04/03/2020
          program call               : xtb --input H1N1O1_1_S_0.input H1N1O1_1_S_0.xyz --ohess --molden --namespace H1N1O1_1_S_0 output.out
          number of atoms            :                     3
          number of electrons        :                    12
          charge                     :                     0
          spin                       :                   0.0

   ID    Z sym.   atoms
    1    8 O      1
    2    7 N      2
    3    1 H      3

          :  Hamiltonian                  GFN2-xTB          :
 * total energy  :    -7.3291547 Eh     change       -0.7720491E-10 Eh
 * total energy  :    -7.3503836 Eh     change       -0.2122897E-01 Eh
 * total energy  :    -7.3518791 Eh     change       -0.1495417E-02 Eh
 * total energy  :    -7.3529309 Eh     change       -0.1051847E-02 Eh
 * total energy  :    -7.3529575 Eh     change       -0.2657404E-04 Eh
 * total energy  :    -7.3529595 Eh     change       -0.2039307E-05 Eh
   *** GEOMETRY OPTIMIZATION CONVERGED AFTER 6 ITERATIONS ***

 final structure:
================
3
 xtb: 6.2.2 (9d81278992624c895f80dd42a50cac0aa55982e2)
O         0.98031388235707   -0.14544530510851    0.00000000000000
N        -0.08248813699979    0.41302843096200    0.00000000000000
H        -0.89782574535727   -0.26758312585348    0.00000000000000

          :  Hamiltonian                  GFN2-xTB          :
         :: gradient norm              0.000855581619 Eh/a0 ::
         :: HOMO-LUMO gap              0.780614060532 eV    ::
         :: SCC energy                -7.384529087195 Eh    ::
         :: -> dispersion             -0.000398829068 Eh    ::
         :: repulsion energy           0.031569560033 Eh    ::

    * Orbital Energies and Occupations

         #    Occupation            Energy/Eh            Energy/eV
      -------------------------------------------------------------
         1        2.0000           -0.7716531             -20.9978
         2        2.0000           -0.6573591             -17.8877
         3        2.0000           -0.6078720             -16.5410
         4        2.0000           -0.6033556             -16.4181
         5        2.0000           -0.5403418             -14.7034
         6        2.0000           -0.3959083             -10.7732 (HOMO)
         7        0.0000           -0.3672213              -9.9926 (LUMO)
         8                          0.0337115               0.9173
Molecule has the following symmetry elements: (sigma)
It seems to be the Cs point group
         9                          0.3040481               8.2736
      -------------------------------------------------------------
                  HL-Gap            0.0286870 Eh            0.7806 eV

     #   Z        covCN         q      C6AA      Î±(0)
     1   8 O      0.923    -0.161    17.416     5.597
     2   7 N      1.778     0.026    21.454     6.859
     3   1 H      0.855     0.135     1.508     1.924

Wiberg/Mayer (AO) data.
largest (>0.10) Wiberg bond orders for each atom
          total WBO             WBO to atom ...

molecular dipole:
                 x           y           z       tot (Debye)
 q only:       -0.531      -0.004       0.000
   full:       -0.629      -0.306       0.000       1.778

 projected vibrational frequencies (cm-1)
eigval :       -0.00    -0.00     0.00     0.00     0.00     0.00
eigval :     1465.96  1665.07  2736.45

   temp. (K)  partition function   enthalpy   heat capacity  entropy
                                   cal/mol     cal/K/mol   cal/K/mol   J/K/mol
  10.00  VIB   1.00                    0.000      0.000     -0.000
         ROT   5.33                   29.809      2.981      6.308
         INT   5.33                   29.809      2.981      6.308
         TR   0.103E+25               49.681      4.968     19.353
         TOT                          79.4904     7.9490    25.6610   107.3655

       T/K    H(0)-H(T)+PV         H(T)/Eh          T*S/Eh         G(T)/Eh
   ------------------------------------------------------------------------
    298.15    0.378499E-02    0.171521E-01    0.250201E-01   -0.786805E-02
    120.00    0.152011E-02    0.148872E-01    0.868339E-02    0.620382E-02
    100.00    0.126676E-02    0.146339E-01    0.700527E-02    0.762859E-02
     80.00    0.101341E-02    0.143805E-01    0.537815E-02    0.900235E-02
     60.00    0.760056E-03    0.141272E-01    0.381502E-02    0.103121E-01
     40.00    0.506704E-03    0.138738E-01    0.233796E-02    0.115358E-01
     20.00    0.253352E-03    0.136204E-01    0.993424E-03    0.126270E-01
     10.00    0.126676E-03    0.134938E-01    0.408934E-03    0.130848E-01 (used)
   ------------------------------------------------------------------------

         :::::::::::::::::::::::::::::::::::::::::::::::::::::
         ::                  THERMODYNAMIC                  ::
         :::::::::::::::::::::::::::::::::::::::::::::::::::::
         :: total free energy          -7.339874688969 Eh   ::
         ::.................................................::
         :: total energy               -7.352959527087 Eh   ::
         :: zero point energy           0.013367095785 Eh   ::
         :: G(RRHO) w/o ZPVE           -0.000282257667 Eh   ::
         :: G(RRHO) contrib.            0.013084838118 Eh   ::
         :::::::::::::::::::::::::::::::::::::::::::::::::::::

           -------------------------------------------------
          | TOTAL ENERGY               -7.352959527087 Eh   |
          | TOTAL ENTHALPY             -7.339465755286 Eh   |
          | TOTAL FREE ENERGY          -7.339874688969 Eh   |
          | GRADIENT NORM               0.000855604304 Eh/Î± |
          | HOMO-LUMO GAP               0.780614033195 eV   |
           -------------------------------------------------

 * finished run on 2020/05/12 at 11:44:44.126
