   * xtb version 6.2.2 (9d81278992624c895f80dd42a50cac0aa55982e2) compiled by '@Darwin' on 04/03/2020
          program call               : xtb --input C4N1_23_S_3.input C4N1_23_S_3.xyz --ohess --molden --namespace C4N1_23_S_3 output.out
          number of atoms            :                     5
          number of electrons        :                    21
          charge                     :                     0
          spin                       :                   1.5

   ID    Z sym.   atoms
    1    7 N      1
    2    6 C      2-5

          :  Hamiltonian                  GFN2-xTB          :
 * total energy  :   -10.9545875 Eh     change       -0.7369927E-09 Eh
 * total energy  :   -11.0083093 Eh     change       -0.5372179E-01 Eh
 * total energy  :   -11.0180262 Eh     change       -0.9716880E-02 Eh
 * total energy  :   -11.0227615 Eh     change       -0.4735282E-02 Eh
 * total energy  :   -11.0053359 Eh     change        0.1742554E-01 Eh
 * total energy  :   -11.0315453 Eh     change       -0.2620935E-01 Eh
 * total energy  :   -11.0341728 Eh     change       -0.2627574E-02 Eh
 * total energy  :   -11.0366106 Eh     change       -0.2437735E-02 Eh
 * total energy  :   -11.0367411 Eh     change       -0.1305250E-03 Eh
 * total energy  :   -11.0367498 Eh     change       -0.8696243E-05 Eh
 * total energy  :   -11.0367511 Eh     change       -0.1313785E-05 Eh
 * total energy  :   -11.0367606 Eh     change       -0.9494465E-05 Eh
 * total energy  :   -11.0367611 Eh     change       -0.5079766E-06 Eh
   *** GEOMETRY OPTIMIZATION CONVERGED AFTER 13 ITERATIONS ***

 final structure:
================
5
 xtb: 6.2.2 (9d81278992624c895f80dd42a50cac0aa55982e2)
N         1.34623360172921    0.04889694730508    0.05816357009286
C         0.40169964866622   -0.86302931334319    0.01702034509333
C        -1.01872783496868   -0.70503444385075   -0.04382550616009
C         0.33806675348869    0.88998156396312    0.01507121879900
C        -1.06727316891543    0.62918524592575   -0.04643062782509

          :  Hamiltonian                  GFN2-xTB          :
         :: gradient norm              0.000597820181 Eh/a0 ::
         :: HOMO-LUMO gap              1.977852968000 eV    ::
         :: SCC energy               -11.201481440939 Eh    ::
         :: -> dispersion             -0.002866234489 Eh    ::
         :: repulsion energy           0.164720298350 Eh    ::

    * Orbital Energies and Occupations

         #    Occupation            Energy/Eh            Energy/eV
      -------------------------------------------------------------
         1        2.0000           -0.7455970             -20.2887
         2        2.0000           -0.6829599             -18.5843
         3        2.0000           -0.6415632             -17.4578
         4        2.0000           -0.5950006             -16.1908
         5        2.0000           -0.5791571             -15.7597
         6        2.0000           -0.5762901             -15.6817
         7        2.0000           -0.5058943             -13.7661
         8        2.0000           -0.4594819             -12.5031
         9        2.0000           -0.4510126             -12.2727
        10        1.0000           -0.4150157             -11.2932
        11        1.0000           -0.4110898             -11.1863
        12        1.0000           -0.3818974             -10.3920 (HOMO)
        13                         -0.3092127              -8.4141 (LUMO)
        14                         -0.2581923              -7.0258
        15                         -0.2043805              -5.5615
        16                          0.1137237               3.0946
        17                          0.1426453               3.8816
        18                          0.3855607              10.4916
        19                          0.4051991              11.0260
        20                          0.5407780              14.7153
      -------------------------------------------------------------
                  HL-Gap            0.0726847 Eh            1.9779 eV

     #   Z        covCN         q      C6AA      Î±(0)
     1   7 N      1.824    -0.134    24.681     7.361
     2   6 C      3.078     0.100    25.705     8.312
     3   6 C      2.263    -0.033    30.829     9.001
     4   6 C      3.078     0.100    25.707     8.312
     5   6 C      2.263    -0.033    30.829     9.001

Wiberg/Mayer (AO) data.
largest (>0.10) Wiberg bond orders for each atom
          total WBO             WBO to atom ...

molecular dipole:
                 x           y           z       tot (Debye)
 q only:       -0.071      -0.003      -0.003
   full:       -0.251      -0.009      -0.011       0.638

 projected vibrational frequencies (cm-1)
eigval :       -0.00    -0.00    -0.00    -0.00     0.00     0.00
eigval :     -306.92   440.07   459.80   616.28   773.18  1008.22
eigval :     1105.50  1484.15  1602.50

   temp. (K)  partition function   enthalpy   heat capacity  entropy
                                   cal/mol     cal/K/mol   cal/K/mol   J/K/mol
  10.00  VIB   1.00                    0.000      0.000     -0.001
         ROT   86.1                   29.809      2.981     11.834
         INT   86.1                   29.809      2.981     11.834
         TR   0.290E+25               49.681      4.968     21.419
         TOT                          79.4904     7.9490    33.2529   139.1302

       T/K    H(0)-H(T)+PV         H(T)/Eh          T*S/Eh         G(T)/Eh
   ------------------------------------------------------------------------
    298.15    0.461109E-02    0.216739E-01    0.297672E-01   -0.809330E-02
    120.00    0.154100E-02    0.186038E-01    0.101600E-01    0.844376E-02
    100.00    0.127360E-02    0.183364E-01    0.822313E-02    0.101133E-01
     80.00    0.101472E-02    0.180775E-01    0.634761E-02    0.117299E-01
     60.00    0.760144E-03    0.178229E-01    0.454110E-02    0.132818E-01
     40.00    0.506704E-03    0.175695E-01    0.282194E-02    0.147476E-01
     20.00    0.253352E-03    0.173161E-01    0.123540E-02    0.160807E-01
     10.00    0.126676E-03    0.171895E-01    0.529919E-03    0.166596E-01 (used)
   ------------------------------------------------------------------------

         :::::::::::::::::::::::::::::::::::::::::::::::::::::
         ::                  THERMODYNAMIC                  ::
         :::::::::::::::::::::::::::::::::::::::::::::::::::::
         :: total free energy         -11.020101561433 Eh   ::
         ::.................................................::
         :: total energy              -11.036761112602 Eh   ::
         :: zero point energy           0.017062794011 Eh   ::
         :: G(RRHO) w/o ZPVE           -0.000403242842 Eh   ::
         :: G(RRHO) contrib.            0.016659551169 Eh   ::
         :::::::::::::::::::::::::::::::::::::::::::::::::::::

           -------------------------------------------------
          | TOTAL ENERGY              -11.036761112602 Eh   |
          | TOTAL ENTHALPY            -11.019571642575 Eh   |
          | TOTAL FREE ENERGY         -11.020101561433 Eh   |
          | GRADIENT NORM               0.000597840986 Eh/Î± |
          | HOMO-LUMO GAP               1.977852245557 eV   |
           -------------------------------------------------

 * finished run on 2020/05/12 at 11:44:08.399
