   * xtb version 6.2.2 (9d81278992624c895f80dd42a50cac0aa55982e2) compiled by '@Darwin' on 04/03/2020
          program call               : xtb --input H3C1O1_0_S_1.input H3C1O1_0_S_1.xyz --ohess --molden --namespace H3C1O1_0_S_1 output.out
          number of atoms            :                     5
          number of electrons        :                    13
          charge                     :                     0
          spin                       :                   0.5

   ID    Z sym.   atoms
    1    8 O      1
    2    6 C      2
    3    1 H      3-5

          :  Hamiltonian                  GFN2-xTB          :
 * total energy  :    -7.6132575 Eh     change        0.1045825E-08 Eh
 * total energy  :    -7.6222301 Eh     change       -0.8972570E-02 Eh
 * total energy  :    -7.6252780 Eh     change       -0.3047929E-02 Eh
 * total energy  :    -7.6264060 Eh     change       -0.1127933E-02 Eh
 * total energy  :    -7.6267296 Eh     change       -0.3236025E-03 Eh
 * total energy  :    -7.6269974 Eh     change       -0.2678365E-03 Eh
 * total energy  :    -7.6271693 Eh     change       -0.1718654E-03 Eh
 * total energy  :    -7.6272347 Eh     change       -0.6545309E-04 Eh
 * total energy  :    -7.6272487 Eh     change       -0.1399733E-04 Eh
 * total energy  :    -7.6272551 Eh     change       -0.6418162E-05 Eh
 * total energy  :    -7.6272555 Eh     change       -0.3950226E-06 Eh
   *** GEOMETRY OPTIMIZATION CONVERGED AFTER 11 ITERATIONS ***

 final structure:
================
5
 xtb: 6.2.2 (9d81278992624c895f80dd42a50cac0aa55982e2)
O         0.81854741387661   -0.29608344157639    0.38896330165347
C        -0.42410971962501    0.07455567965072   -0.01663290802096
H         1.49436067411144   -0.11806652895363   -0.27830185365882
H        -1.07796338121885   -0.68078512753085   -0.41654196014861
H        -0.81083398714419    1.02037841841015    0.32251342017492

          :  Hamiltonian                  GFN2-xTB          :
         :: gradient norm              0.000522474036 Eh/a0 ::
         :: HOMO-LUMO gap             10.541272570670 eV    ::
         :: SCC energy                -7.691257612741 Eh    ::
         :: -> dispersion             -0.000903392229 Eh    ::
         :: repulsion energy           0.064002061462 Eh    ::

    * Orbital Energies and Occupations

         #    Occupation            Energy/Eh            Energy/eV
      -------------------------------------------------------------
         1        2.0000           -0.6992215             -19.0268
         2        2.0000           -0.6168207             -16.7845
         3        2.0000           -0.5576924             -15.1756
         4        2.0000           -0.5279197             -14.3654
         5        2.0000           -0.5143990             -13.9975
         6        2.0000           -0.4194652             -11.4142
         7        1.0000           -0.3174399              -8.6380 (HOMO)
         8                          0.0699447               1.9033 (LUMO)
         9                          0.1553515               4.2273
        10                          0.2587458               7.0408
        11                          0.3000103               8.1637
      -------------------------------------------------------------
                  HL-Gap            0.3873846 Eh           10.5413 eV

     #   Z        covCN         q      C6AA      Î±(0)
     1   8 O      1.658    -0.388    20.625     6.131
     2   6 C      2.705     0.017    27.612     8.601
     3   1 H      0.805     0.304     0.710     1.323
     4   1 H      0.926     0.034     2.532     2.488
     5   1 H      0.926     0.034     2.531     2.488

Wiberg/Mayer (AO) data.
largest (>0.10) Wiberg bond orders for each atom
          total WBO             WBO to atom ...

molecular dipole:
                 x           y           z       tot (Debye)
 q only:        0.123       0.174      -0.452
   full:        0.146       0.223      -0.577       1.616

 projected vibrational frequencies (cm-1)
eigval :       -0.00    -0.00    -0.00     0.00     0.00     0.00
eigval :     -709.63   392.07  1074.12  1098.70  1222.70  1384.07
eigval :     3074.46  3104.40  3414.01

   temp. (K)  partition function   enthalpy   heat capacity  entropy
                                   cal/mol     cal/K/mol   cal/K/mol   J/K/mol
  10.00  VIB   1.00                    0.000      0.000     -0.001
         ROT   13.5                   29.809      2.981      8.152
         INT   13.5                   29.809      2.981      8.151
         TR   0.103E+25               49.681      4.968     19.355
         TOT                          79.4904     7.9490    27.5063   115.0863

       T/K    H(0)-H(T)+PV         H(T)/Eh          T*S/Eh         G(T)/Eh
   ------------------------------------------------------------------------
    298.15    0.416992E-02    0.378060E-01    0.264492E-01    0.113568E-01
    120.00    0.153652E-02    0.351726E-01    0.905628E-02    0.261163E-01
    100.00    0.127313E-02    0.349092E-01    0.730693E-02    0.276023E-01
     80.00    0.101496E-02    0.346510E-01    0.561525E-02    0.290358E-01
     60.00    0.760204E-03    0.343963E-01    0.399168E-02    0.304046E-01
     40.00    0.506705E-03    0.341428E-01    0.245561E-02    0.316872E-01
     20.00    0.253352E-03    0.338894E-01    0.105224E-02    0.328372E-01
     10.00    0.126676E-03    0.337627E-01    0.438341E-03    0.333244E-01 (used)
   ------------------------------------------------------------------------

         :::::::::::::::::::::::::::::::::::::::::::::::::::::
         ::                  THERMODYNAMIC                  ::
         :::::::::::::::::::::::::::::::::::::::::::::::::::::
         :: total free energy          -7.593931136126 Eh   ::
         ::.................................................::
         :: total energy               -7.627255536597 Eh   ::
         :: zero point energy           0.033636064961 Eh   ::
         :: G(RRHO) w/o ZPVE           -0.000311664491 Eh   ::
         :: G(RRHO) contrib.            0.033324400471 Eh   ::
         :::::::::::::::::::::::::::::::::::::::::::::::::::::

           -------------------------------------------------
          | TOTAL ENERGY               -7.627255536597 Eh   |
          | TOTAL ENTHALPY             -7.593492795620 Eh   |
          | TOTAL FREE ENERGY          -7.593931136126 Eh   |
          | GRADIENT NORM               0.000522449096 Eh/Î± |
          | HOMO-LUMO GAP              10.541271579134 eV   |
           -------------------------------------------------

 * finished run on 2020/05/12 at 11:44:44.493
