   * xtb version 6.2.2 (9d81278992624c895f80dd42a50cac0aa55982e2) compiled by '@Darwin' on 04/03/2020
          program call               : xtb --input H2C1_0_S_2.input H2C1_0_S_2.xyz --ohess --molden --namespace H2C1_0_S_2 output.out
          number of atoms            :                     3
          number of electrons        :                     6
          charge                     :                     0
          spin                       :                   1.0

   ID    Z sym.   atoms
    1    6 C      1
    2    1 H      2, 3

          :  Hamiltonian                  GFN2-xTB          :
 * total energy  :    -2.9291512 Eh     change       -0.7765149E-09 Eh
 * total energy  :    -2.9364311 Eh     change       -0.7279926E-02 Eh
 * total energy  :    -2.9381138 Eh     change       -0.1682637E-02 Eh
 * total energy  :    -2.9382916 Eh     change       -0.1778244E-03 Eh
 * total energy  :    -2.9383020 Eh     change       -0.1045176E-04 Eh
 * total energy  :    -2.9383036 Eh     change       -0.1534392E-05 Eh
   *** GEOMETRY OPTIMIZATION CONVERGED AFTER 6 ITERATIONS ***

 final structure:
================
3
 xtb: 6.2.2 (9d81278992624c895f80dd42a50cac0aa55982e2)
C        -0.00025498261454    0.27077731373604    0.00000000000000
H         0.98119847241433   -0.13446431279460   -0.00000000000000
H        -0.98094348979979   -0.13631200094144    0.00000000000000

          :  Hamiltonian                  GFN2-xTB          :
         :: gradient norm              0.000168583264 Eh/a0 ::
         :: HOMO-LUMO gap             12.344032041878 eV    ::
         :: SCC energy                -2.979798152747 Eh    ::
         :: -> dispersion             -0.000261087985 Eh    ::
         :: repulsion energy           0.041494584645 Eh    ::

    * Orbital Energies and Occupations

         #    Occupation            Energy/Eh            Energy/eV
      -------------------------------------------------------------
         1        2.0000           -0.5670574             -15.4304
         2        2.0000           -0.4859234             -13.2226
         3        1.0000           -0.3552470              -9.6668
         4        1.0000           -0.3336251              -9.0784 (HOMO)
         5                          0.1200097               3.2656 (LUMO)
         6                          0.3732453              10.1565
      -------------------------------------------------------------
                  HL-Gap            0.4536348 Eh           12.3440 eV

     #   Z        covCN         q      C6AA      Î±(0)
     1   6 C      1.854    -0.157    35.637     9.643
     2   1 H      0.927     0.079     1.992     2.207
     3   1 H      0.927     0.079     1.992     2.207

Wiberg/Mayer (AO) data.
largest (>0.10) Wiberg bond orders for each atom
          total WBO             WBO to atom ...

molecular dipole:
                 x           y           z       tot (Debye)
 q only:        0.000      -0.121       0.000
   full:        0.000      -0.262       0.000       0.666

 projected vibrational frequencies (cm-1)
eigval :       -0.00    -0.00    -0.00     0.00     0.00     0.00
eigval :      918.32  3136.99  3298.80

   temp. (K)  partition function   enthalpy   heat capacity  entropy
                                   cal/mol     cal/K/mol   cal/K/mol   J/K/mol
  10.00  VIB   1.00                    0.000      0.000     -0.000
         ROT  0.260                   29.809      2.981      0.305
         INT  0.260                   29.809      2.981      0.305
         TR   0.312E+24               49.681      4.968     16.989
         TOT                          79.4904     7.9490    17.2940    72.3581

       T/K    H(0)-H(T)+PV         H(T)/Eh          T*S/Eh         G(T)/Eh
   ------------------------------------------------------------------------
    298.15    0.382723E-02    0.205811E-01    0.210972E-01   -0.516028E-03
    120.00    0.152018E-02    0.182741E-01    0.708343E-02    0.111906E-01
    100.00    0.126677E-02    0.180207E-01    0.567192E-02    0.123487E-01
     80.00    0.101341E-02    0.177673E-01    0.431146E-02    0.134558E-01
     60.00    0.760056E-03    0.175140E-01    0.301501E-02    0.144989E-01
     40.00    0.506704E-03    0.172606E-01    0.180462E-02    0.154560E-01
     20.00    0.253352E-03    0.170072E-01    0.726752E-03    0.162805E-01
     10.00    0.126676E-03    0.168806E-01    0.275597E-03    0.166050E-01 (used)
   ------------------------------------------------------------------------

         :::::::::::::::::::::::::::::::::::::::::::::::::::::
         ::                  THERMODYNAMIC                  ::
         :::::::::::::::::::::::::::::::::::::::::::::::::::::
         :: total free energy          -2.921698591903 Eh   ::
         ::.................................................::
         :: total energy               -2.938303568254 Eh   ::
         :: zero point energy           0.016753897773 Eh   ::
         :: G(RRHO) w/o ZPVE           -0.000148921422 Eh   ::
         :: G(RRHO) contrib.            0.016604976351 Eh   ::
         :::::::::::::::::::::::::::::::::::::::::::::::::::::

           -------------------------------------------------
          | TOTAL ENERGY               -2.938303568254 Eh   |
          | TOTAL ENTHALPY             -2.921422994465 Eh   |
          | TOTAL FREE ENERGY          -2.921698591903 Eh   |
          | GRADIENT NORM               0.000168583760 Eh/Î± |
          | HOMO-LUMO GAP              12.344032047438 eV   |
           -------------------------------------------------

 * finished run on 2020/05/12 at 11:44:27.845
