   * xtb version 6.2.2 (9d81278992624c895f80dd42a50cac0aa55982e2) compiled by '@Darwin' on 04/03/2020
          program call               : xtb --input H1C3N1_12_S_0.input H1C3N1_12_S_0.xyz --ohess --molden --namespace H1C3N1_12_S_0 output.out
          number of atoms            :                     5
          number of electrons        :                    18
          charge                     :                     0
          spin                       :                   0.0

   ID    Z sym.   atoms
    1    6 C      1, 3, 4
    2    7 N      2
    3    1 H      5

          :  Hamiltonian                  GFN2-xTB          :
 * total energy  :    -9.4150776 Eh     change       -0.2635243E-09 Eh
 * total energy  :    -9.5358678 Eh     change       -0.1207901E+00 Eh
 * total energy  :    -9.5098077 Eh     change        0.2606004E-01 Eh
 * total energy  :    -9.6382339 Eh     change       -0.1284262E+00 Eh
 * total energy  :    -9.6544423 Eh     change       -0.1620839E-01 Eh
 * total energy  :    -9.6721312 Eh     change       -0.1768890E-01 Eh
 * total energy  :    -9.6753505 Eh     change       -0.3219265E-02 Eh
 * total energy  :    -9.6874409 Eh     change       -0.1209048E-01 Eh
 * total energy  :    -9.6819858 Eh     change        0.5455157E-02 Eh
 * total energy  :    -9.6899111 Eh     change       -0.7925329E-02 Eh
 * total energy  :    -9.6932310 Eh     change       -0.1011418E-02 Eh
 * total energy  :    -9.6942260 Eh     change       -0.9949709E-03 Eh
 * total energy  :    -9.6946736 Eh     change       -0.4475736E-03 Eh
 * total energy  :    -9.6948174 Eh     change       -0.1438072E-03 Eh
 * total energy  :    -9.6948509 Eh     change       -0.3350720E-04 Eh
 * total energy  :    -9.6949001 Eh     change       -0.4925268E-04 Eh
 * total energy  :    -9.6949365 Eh     change       -0.3634080E-04 Eh
 * total energy  :    -9.6949497 Eh     change       -0.1321178E-04 Eh
 * total energy  :    -9.6949526 Eh     change       -0.2871474E-05 Eh
   *** GEOMETRY OPTIMIZATION CONVERGED AFTER 21 ITERATIONS ***

 final structure:
================
5
 xtb: 6.2.2 (9d81278992624c895f80dd42a50cac0aa55982e2)
C         2.14422957652817   -0.54236831781926    0.94309454919090
N         1.09860610241858   -0.28439909073607    0.48251089697424
C        -0.05492873080048    0.01009739372345   -0.02700250139968
C        -1.12688657410224    0.28931497460524   -0.49400741286844
H        -2.06102037404405    0.52735504022663   -0.90459553189701

          :  Hamiltonian                  GFN2-xTB          :
         :: gradient norm              0.000821784801 Eh/a0 ::
         :: HOMO-LUMO gap              4.736241803628 eV    ::
         :: SCC energy                -9.948162546007 Eh    ::
         :: -> dispersion             -0.002072735178 Eh    ::
         :: repulsion energy           0.253210484925 Eh    ::

    * Orbital Energies and Occupations

         #    Occupation            Energy/Eh            Energy/eV
      -------------------------------------------------------------
         1        2.0000           -0.6768801             -18.4188
         2        2.0000           -0.6525922             -17.7579
         3        2.0000           -0.6168156             -16.7844
         4        2.0000           -0.5347184             -14.5504
         5        2.0000           -0.5347171             -14.5504
         6        2.0000           -0.5293171             -14.4035
         7        2.0000           -0.4408788             -11.9969
         8        2.0000           -0.4377266             -11.9111
         9        2.0000           -0.4377134             -11.9108 (HOMO)
        10                         -0.2636597              -7.1745 (LUMO)
        11                         -0.2636591              -7.1745
        12                         -0.1178179              -3.2060
        13                         -0.1178006              -3.2055
        14                          0.0206367               0.5616
        15                          0.2818249               7.6688
        16                          0.9511946              25.8833
        17                          1.5409011              41.9301
      -------------------------------------------------------------
                  HL-Gap            0.1740537 Eh            4.7362 eV

     #   Z        covCN         q      C6AA      Î±(0)
     1   6 C      0.917    -0.138    39.904    10.575
     2   7 N      1.822     0.076    20.561     6.719
     3   6 C      1.898     0.050    29.844     8.823
     4   6 C      1.910    -0.088    33.528     9.351
     5   1 H      0.928     0.100     1.786     2.090

Wiberg/Mayer (AO) data.
largest (>0.10) Wiberg bond orders for each atom
          total WBO             WBO to atom ...

molecular dipole:
                 x           y           z       tot (Debye)
 q only:       -0.606       0.152      -0.267
   full:       -1.004       0.253      -0.443       2.861

 projected vibrational frequencies (cm-1)
eigval :       -0.00    -0.00    -0.00    -0.00     0.00     0.00
eigval :      192.80   377.62   387.32   635.03   679.51   980.40
eigval :     2150.94  2277.71  3408.91

   temp. (K)  partition function   enthalpy   heat capacity  entropy
                                   cal/mol     cal/K/mol   cal/K/mol   J/K/mol
  10.00  VIB   1.00                    0.000      0.000     -0.007
         ROT   1.33                   29.809      2.981      3.541
         INT   1.33                   29.809      2.981      3.534
         TR   0.217E+25               49.681      4.968     20.838
         TOT                          79.4904     7.9490    24.3718   101.9718

       T/K    H(0)-H(T)+PV         H(T)/Eh          T*S/Eh         G(T)/Eh
   ------------------------------------------------------------------------
    298.15    0.530572E-02    0.305712E-01    0.268186E-01    0.375260E-02
    120.00    0.165505E-02    0.269205E-01    0.862137E-02    0.182991E-01
    100.00    0.134001E-02    0.266054E-01    0.689766E-02    0.197078E-01
     80.00    0.104535E-02    0.263108E-01    0.525549E-02    0.210553E-01
     60.00    0.769134E-03    0.260346E-01    0.370359E-02    0.223310E-01
     40.00    0.507564E-03    0.257730E-01    0.225722E-02    0.235158E-01
     20.00    0.253353E-03    0.255188E-01    0.952451E-03    0.245663E-01
     10.00    0.126676E-03    0.253921E-01    0.388390E-03    0.250037E-01 (used)
   ------------------------------------------------------------------------

         :::::::::::::::::::::::::::::::::::::::::::::::::::::
         ::                  THERMODYNAMIC                  ::
         :::::::::::::::::::::::::::::::::::::::::::::::::::::
         :: total free energy          -9.669948857807 Eh   ::
         ::.................................................::
         :: total energy               -9.694952572195 Eh   ::
         :: zero point energy           0.025265428387 Eh   ::
         :: G(RRHO) w/o ZPVE           -0.000261714000 Eh   ::
         :: G(RRHO) contrib.            0.025003714388 Eh   ::
         :::::::::::::::::::::::::::::::::::::::::::::::::::::

           -------------------------------------------------
          | TOTAL ENERGY               -9.694952572195 Eh   |
          | TOTAL ENTHALPY             -9.669560467792 Eh   |
          | TOTAL FREE ENERGY          -9.669948857807 Eh   |
          | GRADIENT NORM               0.000821789303 Eh/Î± |
          | HOMO-LUMO GAP               4.736241847826 eV   |
           -------------------------------------------------

 * finished run on 2020/05/12 at 11:44:54.978
