   * xtb version 6.2.2 (9d81278992624c895f80dd42a50cac0aa55982e2) compiled by '@Darwin' on 04/03/2020
          program call               : xtb --input C3O1_1_S_2.input C3O1_1_S_2.xyz --ohess --molden --namespace C3O1_1_S_2 output.out
          number of atoms            :                     4
          number of electrons        :                    18
          charge                     :                     0
          spin                       :                   1.0

   ID    Z sym.   atoms
    1    6 C      1-3
    2    8 O      4

          :  Hamiltonian                  GFN2-xTB          :
 * total energy  :   -10.0412480 Eh     change        0.1197424E-09 Eh
 * total energy  :   -10.1436900 Eh     change       -0.1024421E+00 Eh
 * total energy  :   -10.0858341 Eh     change        0.5785590E-01 Eh
 * total energy  :   -10.1824036 Eh     change       -0.9656945E-01 Eh
 * total energy  :   -10.1861958 Eh     change       -0.3792177E-02 Eh
 * total energy  :   -10.1820005 Eh     change        0.4195301E-02 Eh
 * total energy  :   -10.1969674 Eh     change       -0.1496689E-01 Eh
 * total energy  :   -10.1984730 Eh     change       -0.1505646E-02 Eh
 * total energy  :   -10.2012469 Eh     change       -0.2773930E-02 Eh
 * total energy  :   -10.2043035 Eh     change       -0.3056617E-02 Eh
 * total energy  :   -10.2066163 Eh     change       -0.2917815E-02 Eh
 * total energy  :   -10.2071129 Eh     change       -0.4966001E-03 Eh
 * total energy  :   -10.2076342 Eh     change       -0.5212840E-03 Eh
 * total energy  :   -10.2078262 Eh     change       -0.1919834E-03 Eh
 * total energy  :   -10.2078687 Eh     change       -0.4255834E-04 Eh
 * total energy  :   -10.2078756 Eh     change       -0.6846141E-05 Eh
 * total energy  :   -10.2078783 Eh     change       -0.2683148E-05 Eh
 * total energy  :   -10.2078798 Eh     change       -0.1538035E-05 Eh
 * total energy  :   -10.2078832 Eh     change       -0.3358318E-05 Eh
   *** GEOMETRY OPTIMIZATION CONVERGED AFTER 20 ITERATIONS ***

 final structure:
================
4
 xtb: 6.2.2 (9d81278992624c895f80dd42a50cac0aa55982e2)
C         1.84218322642663   -0.03079303385303    0.10118994079124
C         0.62664919780531   -0.04072933657280   -0.16461618814610
C        -0.66040499595498    0.04782671521614    0.14953323915288
O        -1.80842742827695    0.02369565520969   -0.08610799179800

          :  Hamiltonian                  GFN2-xTB          :
         :: gradient norm              0.001559031954 Eh/a0 ::
         :: HOMO-LUMO gap              0.335654930062 eV    ::
         :: SCC energy               -10.391618838870 Eh    ::
         :: -> dispersion             -0.001630004553 Eh    ::
         :: repulsion energy           0.183735746339 Eh    ::

    * Orbital Energies and Occupations

         #    Occupation            Energy/Eh            Energy/eV
      -------------------------------------------------------------
         1        2.0000           -0.7700279             -20.9535
         2        2.0000           -0.6810222             -18.5316
         3        2.0000           -0.6412600             -17.4496
         4        2.0000           -0.5995244             -16.3139
         5        2.0000           -0.5945698             -16.1791
         6        2.0000           -0.5729488             -15.5907
         7        2.0000           -0.4809646             -13.0877
         8        2.0000           -0.4770255             -12.9805
         9        1.0000           -0.4348147             -11.8319
        10        0.9985           -0.3372907              -9.1781 (HOMO)
        11        0.0015           -0.3249556              -8.8425 (LUMO)
        12                         -0.1699768              -4.6253
        13                         -0.1445067              -3.9322
        14                          0.1995764               5.4307
        15                          0.8018610              21.8197
        16                          1.1075199              30.1372
      -------------------------------------------------------------
                  HL-Gap            0.0123351 Eh            0.3357 eV

     #   Z        covCN         q      C6AA      Î±(0)
     1   6 C      0.985    -0.030    36.844    10.197
     2   6 C      1.962    -0.015    31.481     9.061
     3   6 C      1.840     0.230    25.776     8.202
     4   8 O      0.856    -0.185    17.826     5.661
Molecule has the following symmetry elements: (sigma)
It seems to be the Cs point group

Wiberg/Mayer (AO) data.
largest (>0.10) Wiberg bond orders for each atom
          total WBO             WBO to atom ...

molecular dipole:
                 x           y           z       tot (Debye)
 q only:        0.223       0.015       0.094
   full:        0.326       0.000       0.023       0.830

 projected vibrational frequencies (cm-1)
eigval :       -0.00    -0.00    -0.00     0.00     0.00     0.00
eigval :      192.33   283.71   365.05   987.79  1836.14  2133.95

   temp. (K)  partition function   enthalpy   heat capacity  entropy
                                   cal/mol     cal/K/mol   cal/K/mol   J/K/mol
  10.00  VIB   1.00                    0.000      0.000     -0.007
         ROT   43.3                   29.809      2.981     10.469
         INT   43.3                   29.809      2.981     10.462
         TR   0.223E+25               49.681      4.968     20.895
         TOT                          79.4904     7.9490    31.3565   131.1958

       T/K    H(0)-H(T)+PV         H(T)/Eh          T*S/Eh         G(T)/Eh
   ------------------------------------------------------------------------
    298.15    0.517573E-02    0.183868E-01    0.300579E-01   -0.116711E-01
    120.00    0.168287E-02    0.148939E-01    0.999498E-02    0.489892E-02
    100.00    0.135647E-02    0.145675E-01    0.803197E-02    0.653553E-02
     80.00    0.105213E-02    0.142632E-01    0.615436E-02    0.810881E-02
     60.00    0.770547E-03    0.139816E-01    0.437319E-02    0.960840E-02
     40.00    0.507623E-03    0.137187E-01    0.270258E-02    0.110161E-01
     20.00    0.253353E-03    0.134644E-01    0.117508E-02    0.122893E-01
     10.00    0.126676E-03    0.133377E-01    0.499698E-03    0.128380E-01 (used)
   ------------------------------------------------------------------------

         :::::::::::::::::::::::::::::::::::::::::::::::::::::
         ::                  THERMODYNAMIC                  ::
         :::::::::::::::::::::::::::::::::::::::::::::::::::::
         :: total free energy         -10.195045149084 Eh   ::
         ::.................................................::
         :: total energy              -10.207883165406 Eh   ::
         :: zero point energy           0.013211038550 Eh   ::
         :: G(RRHO) w/o ZPVE           -0.000373022228 Eh   ::
         :: G(RRHO) contrib.            0.012838016322 Eh   ::
         :::::::::::::::::::::::::::::::::::::::::::::::::::::

           -------------------------------------------------
          | TOTAL ENERGY              -10.207883165406 Eh   |
          | TOTAL ENTHALPY            -10.194545450840 Eh   |
          | TOTAL FREE ENERGY         -10.195045149084 Eh   |
          | GRADIENT NORM               0.001559045088 Eh/Î± |
          | HOMO-LUMO GAP               0.335655042503 eV   |
           -------------------------------------------------

 * finished run on 2020/05/12 at 11:45:17.875
