   * xtb version 6.2.2 (9d81278992624c895f80dd42a50cac0aa55982e2) compiled by '@Darwin' on 04/03/2020
          program call               : xtb --input H1C3_2_S_3.input H1C3_2_S_3.xyz --ohess --molden --namespace H1C3_2_S_3 output.out
          number of atoms            :                     4
          number of electrons        :                    13
          charge                     :                     0
          spin                       :                   1.5

   ID    Z sym.   atoms
    1    6 C      1-3
    2    1 H      4

          :  Hamiltonian                  GFN2-xTB          :
 * total energy  :    -6.4857190 Eh     change       -0.1515845E-09 Eh
 * total energy  :    -6.5247418 Eh     change       -0.3902278E-01 Eh
 * total energy  :    -6.5256526 Eh     change       -0.9107746E-03 Eh
 * total energy  :    -6.5305172 Eh     change       -0.4864622E-02 Eh
 * total energy  :    -6.5307968 Eh     change       -0.2795864E-03 Eh
 * total energy  :    -6.5309111 Eh     change       -0.1143368E-03 Eh
 * total energy  :    -6.5309164 Eh     change       -0.5262543E-05 Eh
 * total energy  :    -6.5309166 Eh     change       -0.2243579E-06 Eh
   *** GEOMETRY OPTIMIZATION CONVERGED AFTER 8 ITERATIONS ***

 final structure:
================
4
 xtb: 6.2.2 (9d81278992624c895f80dd42a50cac0aa55982e2)
C         0.41624747303292   -0.03314106655541    0.32992333760531
C        -0.90400727538589   -0.61552127401064   -0.10230445260171
C        -0.86221246884187    0.68009704829832   -0.02488901833759
H         1.34997227119484   -0.03143470773227   -0.20272986666601

          :  Hamiltonian                  GFN2-xTB          :
         :: gradient norm              0.000285416911 Eh/a0 ::
         :: HOMO-LUMO gap              2.480390667064 eV    ::
         :: SCC energy                -6.641327814698 Eh    ::
         :: -> dispersion             -0.001250884945 Eh    ::
         :: repulsion energy           0.110411224550 Eh    ::

    * Orbital Energies and Occupations

         #    Occupation            Energy/Eh            Energy/eV
      -------------------------------------------------------------
         1        2.0000           -0.6844150             -18.6239
         2        2.0000           -0.5807921             -15.8042
         3        2.0000           -0.5347249             -14.5506
         4        2.0000           -0.5130506             -13.9608
         5        2.0000           -0.4780613             -13.0087
         6        1.0000           -0.3956415             -10.7660
         7        1.0000           -0.3907403             -10.6326
         8        1.0000           -0.3362133              -9.1488 (HOMO)
         9                         -0.2450605              -6.6684 (LUMO)
        10                         -0.0541131              -1.4725
        11                          0.0797093               2.1690
        12                          0.2818488               7.6695
        13                          0.5843422              15.9008
      -------------------------------------------------------------
                  HL-Gap            0.0911527 Eh            2.4804 eV

     #   Z        covCN         q      C6AA      Î±(0)
     1   6 C      2.879    -0.036    28.897     8.813
     2   6 C      1.957    -0.016    31.507     9.065
     3   6 C      1.957    -0.016    31.507     9.065
     4   1 H      0.926     0.069     2.099     2.266
Molecule has the following symmetry elements: (sigma)
It seems to be the Cs point group

Wiberg/Mayer (AO) data.
largest (>0.10) Wiberg bond orders for each atom
          total WBO             WBO to atom ...

molecular dipole:
                 x           y           z       tot (Debye)
 q only:        0.201      -0.004      -0.045
   full:        0.321       0.004      -0.233       1.008

 projected vibrational frequencies (cm-1)
eigval :       -0.00    -0.00     0.00     0.00     0.00     0.00
eigval :      590.87   831.23   850.52  1125.63  1774.06  3051.81

   temp. (K)  partition function   enthalpy   heat capacity  entropy
                                   cal/mol     cal/K/mol   cal/K/mol   J/K/mol
  10.00  VIB   1.00                    0.000      0.000     -0.000
         ROT   34.2                   29.809      2.981      9.999
         INT   34.2                   29.809      2.981      9.999
         TR   0.134E+25               49.681      4.968     19.882
         TOT                          79.4904     7.9490    29.8814   125.0239

       T/K    H(0)-H(T)+PV         H(T)/Eh          T*S/Eh         G(T)/Eh
   ------------------------------------------------------------------------
    298.15    0.410087E-02    0.228368E-01    0.274338E-01   -0.459694E-02
    120.00    0.152270E-02    0.202587E-01    0.949345E-02    0.107652E-01
    100.00    0.126735E-02    0.200033E-01    0.767853E-02    0.123248E-01
     80.00    0.101348E-02    0.197494E-01    0.591630E-02    0.138331E-01
     60.00    0.760058E-03    0.194960E-01    0.421858E-02    0.152774E-01
     40.00    0.506704E-03    0.192427E-01    0.260700E-02    0.166357E-01
     20.00    0.253352E-03    0.189893E-01    0.112794E-02    0.178614E-01
     10.00    0.126676E-03    0.188626E-01    0.476191E-03    0.183864E-01 (used)
   ------------------------------------------------------------------------

         :::::::::::::::::::::::::::::::::::::::::::::::::::::
         ::                  THERMODYNAMIC                  ::
         :::::::::::::::::::::::::::::::::::::::::::::::::::::
         :: total free energy          -6.512530148867 Eh   ::
         ::.................................................::
         :: total energy               -6.530916585001 Eh   ::
         :: zero point energy           0.018735951094 Eh   ::
         :: G(RRHO) w/o ZPVE           -0.000349514961 Eh   ::
         :: G(RRHO) contrib.            0.018386436133 Eh   ::
         :::::::::::::::::::::::::::::::::::::::::::::::::::::

           -------------------------------------------------
          | TOTAL ENERGY               -6.530916585001 Eh   |
          | TOTAL ENTHALPY             -6.512053957891 Eh   |
          | TOTAL FREE ENERGY          -6.512530148867 Eh   |
          | GRADIENT NORM               0.000285386771 Eh/Î± |
          | HOMO-LUMO GAP               2.480392500632 eV   |
           -------------------------------------------------

 * finished run on 2020/05/12 at 11:43:51.790
