 Gaussian 16, Revision B.01,
 Gaussian 16:  ES64L-G16RevB.01 20-Dec-2017

 ------------------------
 #P ROCCSD(T)/aug-cc-pvtz
 ------------------------

 -----
 Title
 -----
 Symbolic Z-matrix:
 Charge =  1 Multiplicity = 3

                         Standard orientation:
 ---------------------------------------------------------------------
 Center     Atomic      Atomic             Coordinates (Angstroms)
 Number     Number       Type             X           Y           Z
 ---------------------------------------------------------------------
      1         17           0        0.000000    0.000000    0.000000
 ---------------------------------------------------------------------

 SCF Done:  E(ROHF) =  -459.046786671     A.U. after   11 cycles
 E2 =    -0.1328060650D+00 EUMP2 =    -0.45917959273614D+03
 CCSD(T)
 CCSD(T)= -0.45920662123D+03

 Unable to determine electronic state:  an orbital has unidentified symmetry.
 Alpha  occ. eigenvalues -- -105.37402 -11.08809  -8.56912  -8.56912  -8.54243
 Alpha  occ. eigenvalues --   -1.59545  -0.98986  -0.98986  -0.92250
 Alpha virt. eigenvalues --   -0.11182  -0.07631  -0.07631  -0.06836   0.01259
 Alpha virt. eigenvalues --    0.01259   0.03634   0.03634   0.04243   0.29999
 Alpha virt. eigenvalues --    0.29999   0.32643   0.48798   0.48798   0.52194

 Mulliken charges and spin densities:
               1          2
     1  Cl   1.000000   2.000000
 Sum of Mulliken charges =   1.00000   2.00000

 Dipole moment (field-independent basis, Debye):
    X=              0.0000    Y=              0.0000    Z=              0.0000  Tot=              0.0000
 Quadrupole moment (field-independent basis, Debye-Ang):
   XX=             -8.6578   YY=             -8.6578   ZZ=            -10.5187
   XY=             -0.0000   XZ=             -0.0000   YZ=              0.0000

 67\PMP2-0=-459.1795927\MP4SDQ=-459.202267\CCSD=-459.2020494\CCSD(T)=-4
 Normal termination of Gaussian 16 at Mon Oct  5 21:38:33 2020.
