   * xtb version 6.2.2 (9d81278992624c895f80dd42a50cac0aa55982e2) compiled by '@Darwin' on 04/03/2020
          program call               : xtb --input H1C3N1_28_S_2.input H1C3N1_28_S_2.xyz --ohess --molden --namespace H1C3N1_28_S_2 output.out
          number of atoms            :                     5
          number of electrons        :                    18
          charge                     :                     0
          spin                       :                   1.0

   ID    Z sym.   atoms
    1    6 C      1-3
    2    7 N      4
    3    1 H      5

          :  Hamiltonian                  GFN2-xTB          :
 * total energy  :    -9.4236037 Eh     change        0.3223732E-10 Eh
 * total energy  :    -9.4394585 Eh     change       -0.1585476E-01 Eh
 * total energy  :    -9.4532198 Eh     change       -0.1376132E-01 Eh
 * total energy  :    -9.4574771 Eh     change       -0.4257238E-02 Eh
 * total energy  :    -9.4611560 Eh     change       -0.3678932E-02 Eh
 * total energy  :    -9.4621698 Eh     change       -0.1013840E-02 Eh
 * total energy  :    -9.4638320 Eh     change       -0.1662216E-02 Eh
 * total energy  :    -9.4639203 Eh     change       -0.8824366E-04 Eh
 * total energy  :    -9.4639450 Eh     change       -0.2468832E-04 Eh
 * total energy  :    -9.4639595 Eh     change       -0.1451855E-04 Eh
 * total energy  :    -9.4639614 Eh     change       -0.1869586E-05 Eh
   *** GEOMETRY OPTIMIZATION CONVERGED AFTER 11 ITERATIONS ***

 final structure:
================
5
 xtb: 6.2.2 (9d81278992624c895f80dd42a50cac0aa55982e2)
C         1.11241398461212   -0.32591985821839   -0.13236126214816
C         0.07464883374393   -1.08618186886204    0.30355713586835
C        -1.05737380586568   -0.47503252987330   -0.13233242740948
N        -0.03757679554403    0.54673109076325   -0.34145791196845
H        -0.09211121694634    1.34040316619048    0.30259446565774

          :  Hamiltonian                  GFN2-xTB          :
         :: gradient norm              0.000568917896 Eh/a0 ::
         :: HOMO-LUMO gap              0.891967630153 eV    ::
         :: SCC energy                -9.585468395196 Eh    ::
         :: -> dispersion             -0.002140355039 Eh    ::
         :: repulsion energy           0.121506991482 Eh    ::

    * Orbital Energies and Occupations

         #    Occupation            Energy/Eh            Energy/eV
      -------------------------------------------------------------
         1        2.0000           -0.7277523             -19.8031
         2        2.0000           -0.6358852             -17.3033
         3        2.0000           -0.6358215             -17.3016
         4        2.0000           -0.5700227             -15.5111
         5        2.0000           -0.5355970             -14.5743
         6        2.0000           -0.5174082             -14.0794
         7        2.0000           -0.4619163             -12.5694
         8        2.0000           -0.4249581             -11.5637
         9        1.0000           -0.3912135             -10.6455
        10        1.0000           -0.3489503              -9.4954 (HOMO)
        11                         -0.3161710              -8.6034 (LUMO)
        12                         -0.2059863              -5.6052
        13                         -0.0529549              -1.4410
        14                          0.0334283               0.9096
        15                          0.1121532               3.0518
        16                          0.3751231              10.2076
        17                          0.5130137              13.9598
      -------------------------------------------------------------
                  HL-Gap            0.0327794 Eh            0.8920 eV

     #   Z        covCN         q      C6AA      Î±(0)
     1   6 C      2.061    -0.071    32.897     9.265
     2   6 C      2.732     0.042    27.029     8.512
     3   6 C      2.061    -0.071    32.897     9.265
     4   7 N      3.444    -0.071    22.609     7.062
     5   1 H      0.859     0.172     1.263     1.761

Wiberg/Mayer (AO) data.
largest (>0.10) Wiberg bond orders for each atom
          total WBO             WBO to atom ...

molecular dipole:
                 x           y           z       tot (Debye)
 q only:       -0.026       0.383       0.204
   full:       -0.040       0.582       0.332       1.706

 projected vibrational frequencies (cm-1)
eigval :       -0.00    -0.00    -0.00    -0.00     0.00     0.00
eigval :      454.91   607.16   624.14   900.74  1025.18  1108.90
eigval :     1230.97  1427.23  3228.57

   temp. (K)  partition function   enthalpy   heat capacity  entropy
                                   cal/mol     cal/K/mol   cal/K/mol   J/K/mol
  10.00  VIB   1.00                    0.000      0.000     -0.001
         ROT   87.8                   29.809      2.981     11.874
         INT   87.8                   29.809      2.981     11.873
         TR   0.217E+25               49.681      4.968     20.838
         TOT                          79.4904     7.9490    32.7112   136.8636

       T/K    H(0)-H(T)+PV         H(T)/Eh          T*S/Eh         G(T)/Eh
   ------------------------------------------------------------------------
    298.15    0.447252E-02    0.286388E-01    0.292946E-01   -0.655703E-03
    120.00    0.153264E-02    0.256990E-01    0.100464E-01    0.156526E-01
    100.00    0.127056E-02    0.254369E-01    0.813323E-02    0.173037E-01
     80.00    0.101408E-02    0.251804E-01    0.627778E-02    0.189026E-01
     60.00    0.760096E-03    0.249264E-01    0.448923E-02    0.204372E-01
     40.00    0.506704E-03    0.246730E-01    0.278739E-02    0.218856E-01
     20.00    0.253352E-03    0.244197E-01    0.121813E-02    0.232015E-01
     10.00    0.126676E-03    0.242930E-01    0.521286E-03    0.237717E-01 (used)
   ------------------------------------------------------------------------

         :::::::::::::::::::::::::::::::::::::::::::::::::::::
         ::                  THERMODYNAMIC                  ::
         :::::::::::::::::::::::::::::::::::::::::::::::::::::
         :: total free energy          -9.440189663070 Eh   ::
         ::.................................................::
         :: total energy               -9.463961379485 Eh   ::
         :: zero point energy           0.024166326345 Eh   ::
         :: G(RRHO) w/o ZPVE           -0.000394609930 Eh   ::
         :: G(RRHO) contrib.            0.023771716415 Eh   ::
         :::::::::::::::::::::::::::::::::::::::::::::::::::::

           -------------------------------------------------
          | TOTAL ENERGY               -9.463961379485 Eh   |
          | TOTAL ENTHALPY             -9.439668377124 Eh   |
          | TOTAL FREE ENERGY          -9.440189663070 Eh   |
          | GRADIENT NORM               0.000568759263 Eh/Î± |
          | HOMO-LUMO GAP               0.891972030362 eV   |
           -------------------------------------------------

 * finished run on 2020/05/12 at 11:45:01.436
