   * xtb version 6.2.2 (9d81278992624c895f80dd42a50cac0aa55982e2) compiled by '@Darwin' on 04/03/2020
          program call               : xtb --input C1O2_1_S_0.input C1O2_1_S_0.xyz --ohess --molden --namespace C1O2_1_S_0 output.out
          number of atoms            :                     3
          number of electrons        :                    16
          charge                     :                     0
          spin                       :                   0.0

   ID    Z sym.   atoms
    1    8 O      1, 3
    2    6 C      2

          :  Hamiltonian                  GFN2-xTB          :
 * total energy  :    -9.9426319 Eh     change       -0.5633183E-10 Eh
 * total energy  :    -9.9756402 Eh     change       -0.3300828E-01 Eh
 * total energy  :   -10.0069969 Eh     change       -0.3135676E-01 Eh
 * total energy  :   -10.0554056 Eh     change       -0.4840861E-01 Eh
 * total energy  :   -10.0530746 Eh     change        0.2330997E-02 Eh
 * total energy  :   -10.0671731 Eh     change       -0.1409854E-01 Eh
 * total energy  :   -10.0675009 Eh     change       -0.3278122E-03 Eh
 * total energy  :   -10.0676739 Eh     change       -0.1729699E-03 Eh
 * total energy  :   -10.0677379 Eh     change       -0.6405113E-04 Eh
 * total energy  :   -10.0677449 Eh     change       -0.6931249E-05 Eh
 * total energy  :   -10.0677454 Eh     change       -0.5698114E-06 Eh
   *** GEOMETRY OPTIMIZATION CONVERGED AFTER 11 ITERATIONS ***

 final structure:
================
3
 xtb: 6.2.2 (9d81278992624c895f80dd42a50cac0aa55982e2)
O         0.06838482389472    0.80857633888247   -0.00000000000000
C         0.61074547494464   -0.36468879834914   -0.00000000000000
O        -0.67913029883936   -0.44388754053333    0.00000000000000

          :  Hamiltonian                  GFN2-xTB          :
         :: gradient norm              0.000588727105 Eh/a0 ::
         :: HOMO-LUMO gap              3.959923392455 eV    ::
         :: SCC energy               -10.106113384500 Eh    ::
         :: -> dispersion             -0.000668382109 Eh    ::
         :: repulsion energy           0.038367949827 Eh    ::

    * Orbital Energies and Occupations

         #    Occupation            Energy/Eh            Energy/eV
      -------------------------------------------------------------
         1        2.0000           -0.8482996             -23.0834
         2        2.0000           -0.7694371             -20.9374
         3        2.0000           -0.7086975             -19.2846
         4        2.0000           -0.6763868             -18.4054
         5        2.0000           -0.6578538             -17.9011
         6        2.0000           -0.6156179             -16.7518
         7        2.0000           -0.5186584             -14.1134
         8        2.0000           -0.4916446             -13.3783 (HOMO)
         9                         -0.3461201              -9.4184 (LUMO)
        10                         -0.2886062              -7.8534
        11                         -0.0088681              -0.2413
        12                          0.4058609              11.0440
      -------------------------------------------------------------
                  HL-Gap            0.1455245 Eh            3.9599 eV

     #   Z        covCN         q      C6AA      Î±(0)
     1   8 O      1.756    -0.064    15.320     5.285
     2   6 C      1.710     0.127    28.244     8.604
     3   8 O      1.756    -0.064    15.317     5.285

Wiberg/Mayer (AO) data.
largest (>0.10) Wiberg bond orders for each atom
Molecule has the following symmetry elements: (C2) 2*(sigma)

molecular dipole:
                 x           y           z       tot (Debye)
 q only:        0.220      -0.132      -0.000
   full:       -0.107       0.063       0.000       0.315

 projected vibrational frequencies (cm-1)
eigval :       -0.00    -0.00    -0.00     0.00     0.00     0.00
eigval :      901.54   988.39  1633.19

   temp. (K)  partition function   enthalpy   heat capacity  entropy
                                   cal/mol     cal/K/mol   cal/K/mol   J/K/mol
  10.00  VIB   1.00                    0.000      0.000     -0.000
         ROT   15.8                   29.809      2.981      8.472
         INT   15.8                   29.809      2.981      8.472
         TR   0.174E+25               49.681      4.968     20.396
         TOT                          79.4904     7.9490    28.8675   120.7815

       T/K    H(0)-H(T)+PV         H(T)/Eh          T*S/Eh         G(T)/Eh
   ------------------------------------------------------------------------
    298.15    0.387187E-02    0.118982E-01    0.266501E-01   -0.147519E-01
    120.00    0.152023E-02    0.954651E-02    0.929671E-02    0.249804E-03
    100.00    0.126677E-02    0.929306E-02    0.751628E-02    0.177678E-02
     80.00    0.101341E-02    0.903969E-02    0.578695E-02    0.325275E-02
     60.00    0.760056E-03    0.878634E-02    0.412162E-02    0.466472E-02
     40.00    0.506704E-03    0.853299E-02    0.254236E-02    0.599063E-02
     20.00    0.253352E-03    0.827964E-02    0.109562E-02    0.718401E-02
     10.00    0.126676E-03    0.815296E-02    0.460033E-03    0.769293E-02 (used)
   ------------------------------------------------------------------------

         :::::::::::::::::::::::::::::::::::::::::::::::::::::
         ::                  THERMODYNAMIC                  ::
         :::::::::::::::::::::::::::::::::::::::::::::::::::::
         :: total free energy         -10.060052505534 Eh   ::
         ::.................................................::
         :: total energy              -10.067745434062 Eh   ::
         :: zero point energy           0.008026285086 Eh   ::
         :: G(RRHO) w/o ZPVE           -0.000333356558 Eh   ::
         :: G(RRHO) contrib.            0.007692928528 Eh   ::
         :::::::::::::::::::::::::::::::::::::::::::::::::::::

           -------------------------------------------------
          | TOTAL ENERGY              -10.067745434062 Eh   |
          | TOTAL ENTHALPY            -10.059592472960 Eh   |
          | TOTAL FREE ENERGY         -10.060052505534 Eh   |
          | GRADIENT NORM               0.000588772944 Eh/Î± |
          | HOMO-LUMO GAP               3.959922916334 eV   |
           -------------------------------------------------

 * finished run on 2020/05/12 at 11:44:49.201
