   * xtb version 6.2.2 (9d81278992624c895f80dd42a50cac0aa55982e2) compiled by '@Darwin' on 04/03/2020
          program call               : xtb --input C4N1_7_S_1.input C4N1_7_S_1.xyz --ohess --molden --namespace C4N1_7_S_1 output.out
          number of atoms            :                     5
          number of electrons        :                    21
          charge                     :                     0
          spin                       :                   0.5

   ID    Z sym.   atoms
    1    6 C      1, 3-5
    2    7 N      2

          :  Hamiltonian                  GFN2-xTB          :
 * total energy  :   -10.8948962 Eh     change       -0.2623111E-09 Eh
 * total energy  :   -11.0348688 Eh     change       -0.1399726E+00 Eh
 * total energy  :   -11.0655105 Eh     change       -0.3064165E-01 Eh
 * total energy  :   -11.1071191 Eh     change       -0.4160860E-01 Eh
 * total energy  :   -11.1149555 Eh     change       -0.7836408E-02 Eh
 * total energy  :   -11.1212561 Eh     change       -0.6300661E-02 Eh
 * total energy  :   -11.1241336 Eh     change       -0.2877503E-02 Eh
 * total energy  :   -11.1261327 Eh     change       -0.1999041E-02 Eh
 * total energy  :   -11.1274252 Eh     change       -0.1292578E-02 Eh
 * total energy  :   -11.1230134 Eh     change        0.4411813E-02 Eh
 * total energy  :   -11.1268811 Eh     change        0.1262990E-02 Eh
 * total energy  :   -11.1283802 Eh     change       -0.1499104E-02 Eh
 * total energy  :   -11.1274360 Eh     change        0.9441372E-03 Eh
 * total energy  :   -11.1285152 Eh     change       -0.1079200E-02 Eh
 * total energy  :   -11.1285689 Eh     change       -0.5360511E-04 Eh
 * total energy  :   -11.1286441 Eh     change       -0.7529188E-04 Eh
 * total energy  :   -11.1287065 Eh     change       -0.6237801E-04 Eh
 * total energy  :   -11.1287384 Eh     change       -0.3185907E-04 Eh
 * total energy  :   -11.1287391 Eh     change       -0.6994362E-06 Eh
   *** GEOMETRY OPTIMIZATION CONVERGED AFTER 22 ITERATIONS ***

 final structure:
================
5
 xtb: 6.2.2 (9d81278992624c895f80dd42a50cac0aa55982e2)
C         1.21787014506537    0.10308289291785   -0.10267415568995
N        -0.00011109537947    0.01450009747838    0.01358895093504
C        -1.21821885298033   -0.09061446185162    0.11145525790242
C         2.48913459291972    0.18215480192926   -0.22336966263029
C        -2.48867478962529   -0.20912333047387    0.20100060948279

          :  Hamiltonian                  GFN2-xTB          :
         :: gradient norm              0.000572458033 Eh/a0 ::
         :: HOMO-LUMO gap              0.000038672688 eV    ::
         :: SCC energy               -11.379989698038 Eh    ::
         :: -> dispersion             -0.002677977522 Eh    ::
         :: repulsion energy           0.251251831408 Eh    ::

    * Orbital Energies and Occupations

         #    Occupation            Energy/Eh            Energy/eV
      -------------------------------------------------------------
         1        2.0000           -0.7245980             -19.7173
         2        2.0000           -0.6921903             -18.8355
         3        2.0000           -0.6676581             -18.1679
         4        2.0000           -0.6421951             -17.4750
         5        2.0000           -0.5920645             -16.1109
         6        2.0000           -0.5920546             -16.1106
         7        2.0000           -0.4752800             -12.9330
         8        2.0000           -0.4752740             -12.9329
         9        2.0000           -0.4638953             -12.6232
        10        2.0000           -0.4482896             -12.1986
        11        0.5002           -0.4045097             -11.0073 (HOMO)
        12        0.4998           -0.4045083             -11.0072 (LUMO)
        13                         -0.2463550              -6.7037
        14                         -0.2463468              -6.7034
        15                         -0.1421466              -3.8680
        16                         -0.1419823              -3.8635
        17                          0.0244236               0.6646
        18                          0.4021899              10.9441
        19                          0.9117590              24.8102
        20                          1.3765466              37.4577
      -------------------------------------------------------------
                  HL-Gap            0.0000014 Eh            0.0000 eV

     #   Z        covCN         q      C6AA      Î±(0)
     1   6 C      1.899     0.101    28.612     8.639
     2   7 N      1.823     0.083    20.446     6.700
     3   6 C      1.899     0.101    28.611     8.639
     4   6 C      0.982    -0.142    40.543    10.695
     5   6 C      0.982    -0.142    40.545    10.695

Wiberg/Mayer (AO) data.
largest (>0.10) Wiberg bond orders for each atom
          total WBO             WBO to atom ...

molecular dipole:
                 x           y           z       tot (Debye)
 q only:       -0.000       0.012       0.010
   full:       -0.000       0.027       0.023       0.090

 projected vibrational frequencies (cm-1)
eigval :       -0.00    -0.00    -0.00    -0.00     0.00     0.00
eigval :       78.01   220.63   222.24   396.37   397.48   862.44
eigval :     1508.51  1976.46  2005.35

   temp. (K)  partition function   enthalpy   heat capacity  entropy
                                   cal/mol     cal/K/mol   cal/K/mol   J/K/mol
  10.00  VIB   1.00                    0.003      0.003     -0.047
         ROT   10.6                   29.809      2.981      7.666
         INT   10.6                   29.812      2.984      7.619
         TR   0.290E+25               49.681      4.968     21.419
         TOT                          79.4934     7.9524    29.0380   121.4952

       T/K    H(0)-H(T)+PV         H(T)/Eh          T*S/Eh         G(T)/Eh
   ------------------------------------------------------------------------
    298.15    0.630318E-02    0.237710E-01    0.313127E-01   -0.754165E-02
    120.00    0.193373E-02    0.194016E-01    0.100039E-01    0.939763E-02
    100.00    0.153734E-02    0.190052E-01    0.797919E-02    0.110260E-01
     80.00    0.117050E-02    0.186383E-01    0.605953E-02    0.125788E-01
     60.00    0.835063E-03    0.183029E-01    0.425819E-02    0.140447E-01
     40.00    0.530278E-03    0.179981E-01    0.259351E-02    0.154046E-01
     20.00    0.254656E-03    0.177225E-01    0.110566E-02    0.166168E-01
     10.00    0.126681E-03    0.175945E-01    0.462751E-03    0.171318E-01 (used)
   ------------------------------------------------------------------------

         :::::::::::::::::::::::::::::::::::::::::::::::::::::
         ::                  THERMODYNAMIC                  ::
         :::::::::::::::::::::::::::::::::::::::::::::::::::::
         :: total free energy         -11.111607323436 Eh   ::
         ::.................................................::
         :: total energy              -11.128739081254 Eh   ::
         :: zero point energy           0.017467827789 Eh   ::
         :: G(RRHO) w/o ZPVE           -0.000336069971 Eh   ::
         :: G(RRHO) contrib.            0.017131757818 Eh   ::
         :::::::::::::::::::::::::::::::::::::::::::::::::::::

           -------------------------------------------------
          | TOTAL ENERGY              -11.128739081254 Eh   |
          | TOTAL ENTHALPY            -11.111144572702 Eh   |
          | TOTAL FREE ENERGY         -11.111607323436 Eh   |
          | GRADIENT NORM               0.000572588190 Eh/Î± |
          | HOMO-LUMO GAP               0.000038736564 eV   |
           -------------------------------------------------

 * finished run on 2020/05/12 at 11:44:00.383
