   * xtb version 6.2.2 (9d81278992624c895f80dd42a50cac0aa55982e2) compiled by '@Darwin' on 04/03/2020
          program call               : xtb --input H1C3N1_2_S_0.input H1C3N1_2_S_0.xyz --ohess --molden --namespace H1C3N1_2_S_0 output.out
          number of atoms            :                     5
          number of electrons        :                    18
          charge                     :                     0
          spin                       :                   0.0

   ID    Z sym.   atoms
    1    6 C      1-3
    2    7 N      4
    3    1 H      5

          :  Hamiltonian                  GFN2-xTB          :
 * total energy  :    -9.3632177 Eh     change        0.1716494E-10 Eh
 * total energy  :    -9.4148883 Eh     change       -0.5167059E-01 Eh
 * total energy  :    -9.4302799 Eh     change       -0.1539157E-01 Eh
 * total energy  :    -9.4545237 Eh     change       -0.2424379E-01 Eh
 * total energy  :    -9.4498371 Eh     change        0.4686530E-02 Eh
 * total energy  :    -9.4713628 Eh     change       -0.2152561E-01 Eh
 * total energy  :    -9.4817542 Eh     change       -0.1039144E-01 Eh
 * total energy  :    -9.5064458 Eh     change       -0.2469162E-01 Eh
 * total energy  :    -9.4628808 Eh     change        0.4356505E-01 Eh
 * total energy  :    -9.5231007 Eh     change       -0.6021996E-01 Eh
 * total energy  :    -9.5278893 Eh     change        0.3794184E-03 Eh
 * total energy  :    -9.5331155 Eh     change       -0.5226246E-02 Eh
 * total energy  :    -9.5351479 Eh     change       -0.2032355E-02 Eh
 * total energy  :    -9.5361922 Eh     change       -0.1044298E-02 Eh
 * total energy  :    -9.5377019 Eh     change       -0.1509695E-02 Eh
 * total energy  :    -9.5378220 Eh     change       -0.1201493E-03 Eh
 * total energy  :    -9.5378963 Eh     change       -0.7421764E-04 Eh
 * total energy  :    -9.5379037 Eh     change       -0.7452180E-05 Eh
 * total energy  :    -9.5379053 Eh     change       -0.1584273E-05 Eh
   *** GEOMETRY OPTIMIZATION CONVERGED AFTER 23 ITERATIONS ***

 final structure:
================
5
 xtb: 6.2.2 (9d81278992624c895f80dd42a50cac0aa55982e2)
C        -0.33295749912693    1.07517268949267    0.05068910318702
C        -0.80731166363279    0.00587510878280    0.82022586534968
C        -0.71753043024558   -0.80949563936423   -0.31452301608183
N         0.43881393914176   -0.02657890940736   -0.32448494094149
H         1.41898665386355   -0.24497224950387   -0.23190701151338

          :  Hamiltonian                  GFN2-xTB          :
         :: gradient norm              0.000330161840 Eh/a0 ::
         :: HOMO-LUMO gap              3.245029932731 eV    ::
         :: SCC energy                -9.655979803345 Eh    ::
         :: -> dispersion             -0.002054578159 Eh    ::
         :: repulsion energy           0.118074486636 Eh    ::

    * Orbital Energies and Occupations

         #    Occupation            Energy/Eh            Energy/eV
      -------------------------------------------------------------
         1        2.0000           -0.7417526             -20.1841
         2        2.0000           -0.6529423             -17.7675
         3        2.0000           -0.6431379             -17.5007
         4        2.0000           -0.5943516             -16.1731
         5        2.0000           -0.5309499             -14.4479
         6        2.0000           -0.5196509             -14.1404
         7        2.0000           -0.4599992             -12.5172
         8        2.0000           -0.4275048             -11.6330
         9        2.0000           -0.4115511             -11.1989 (HOMO)
        10                         -0.2922984              -7.9538 (LUMO)
        11                         -0.2864416              -7.7945
        12                         -0.2535354              -6.8990
        13                         -0.0488044              -1.3280
        14                          0.0450263               1.2252
        15                          0.1998608               5.4385
        16                          0.2386706               6.4946
        17                          0.5079200              13.8212
      -------------------------------------------------------------
                  HL-Gap            0.1192527 Eh            3.2450 eV

     #   Z        covCN         q      C6AA      Î±(0)
     1   6 C      2.467    -0.089    30.546     9.022
     2   6 C      2.795    -0.020    28.486     8.743
     3   6 C      2.467    -0.089    30.547     9.022
     4   7 N      3.514     0.030    20.721     6.761
     5   1 H      0.860     0.168     1.282     1.774

Wiberg/Mayer (AO) data.
largest (>0.10) Wiberg bond orders for each atom
          total WBO             WBO to atom ...

molecular dipole:
                 x           y           z       tot (Debye)
 q only:        0.684      -0.124      -0.078
   full:        1.317      -0.264      -0.025       3.414

 projected vibrational frequencies (cm-1)
eigval :       -0.00    -0.00    -0.00    -0.00     0.00     0.00
eigval :      535.98   580.83   730.43   851.96   984.04  1082.24
eigval :     1318.49  1432.19  3409.91

   temp. (K)  partition function   enthalpy   heat capacity  entropy
                                   cal/mol     cal/K/mol   cal/K/mol   J/K/mol
  10.00  VIB   1.00                    0.000      0.000     -0.000
         ROT   81.7                   29.809      2.981     11.731
         INT   81.7                   29.809      2.981     11.731
         TR   0.217E+25               49.681      4.968     20.838
         TOT                          79.4904     7.9490    32.5685   136.2665

       T/K    H(0)-H(T)+PV         H(T)/Eh          T*S/Eh         G(T)/Eh
   ------------------------------------------------------------------------
    298.15    0.439500E-02    0.292864E-01    0.291039E-01    0.182465E-03
    120.00    0.152729E-02    0.264187E-01    0.100126E-01    0.164061E-01
    100.00    0.126859E-02    0.261600E-01    0.810817E-02    0.180518E-01
     80.00    0.101365E-02    0.259051E-01    0.625909E-02    0.196460E-01
     60.00    0.760065E-03    0.256515E-01    0.447553E-02    0.211759E-01
     40.00    0.506704E-03    0.253981E-01    0.277829E-02    0.226198E-01
     20.00    0.253352E-03    0.251448E-01    0.121358E-02    0.239312E-01
     10.00    0.126676E-03    0.250181E-01    0.519012E-03    0.244991E-01 (used)
   ------------------------------------------------------------------------

         :::::::::::::::::::::::::::::::::::::::::::::::::::::
         ::                  THERMODYNAMIC                  ::
         :::::::::::::::::::::::::::::::::::::::::::::::::::::
         :: total free energy          -9.513406215884 Eh   ::
         ::.................................................::
         :: total energy               -9.537905291282 Eh   ::
         :: zero point energy           0.024891410999 Eh   ::
         :: G(RRHO) w/o ZPVE           -0.000392335601 Eh   ::
         :: G(RRHO) contrib.            0.024499075398 Eh   ::
         :::::::::::::::::::::::::::::::::::::::::::::::::::::

           -------------------------------------------------
          | TOTAL ENERGY               -9.537905291282 Eh   |
          | TOTAL ENTHALPY             -9.512887204267 Eh   |
          | TOTAL FREE ENERGY          -9.513406215884 Eh   |
          | GRADIENT NORM               0.000329846942 Eh/Î± |
          | HOMO-LUMO GAP               3.245030751699 eV   |
           -------------------------------------------------

 * finished run on 2020/05/12 at 11:44:50.874
