   * xtb version 6.2.2 (9d81278992624c895f80dd42a50cac0aa55982e2) compiled by '@Darwin' on 04/03/2020
          program call               : xtb --input C4N1_52_S_1.input C4N1_52_S_1.xyz --ohess --molden --namespace C4N1_52_S_1 output.out
          number of atoms            :                     5
          number of electrons        :                    21
          charge                     :                     0
          spin                       :                   0.5

   ID    Z sym.   atoms
    1    7 N      1
    2    6 C      2-5

          :  Hamiltonian                  GFN2-xTB          :
 * total energy  :   -10.9716862 Eh     change       -0.9718892E-09 Eh
 * total energy  :   -11.0121644 Eh     change       -0.4047823E-01 Eh
 * total energy  :   -11.0271185 Eh     change       -0.1495405E-01 Eh
 * total energy  :   -11.0286495 Eh     change       -0.1531039E-02 Eh
 * total energy  :   -11.0288991 Eh     change       -0.2496440E-03 Eh
 * total energy  :   -11.0289185 Eh     change       -0.1934303E-04 Eh
 * total energy  :   -11.0289299 Eh     change       -0.1141987E-04 Eh
 * total energy  :   -11.0289600 Eh     change       -0.3009864E-04 Eh
 * total energy  :   -11.0290661 Eh     change       -0.1061271E-03 Eh
 * total energy  :   -11.0294321 Eh     change       -0.3659634E-03 Eh
 * total energy  :   -11.0304812 Eh     change       -0.1049125E-02 Eh
 * total energy  :   -11.0322968 Eh     change       -0.1815565E-02 Eh
 * total energy  :   -11.0340599 Eh     change       -0.1763123E-02 Eh
 * total energy  :   -11.0355517 Eh     change       -0.1491782E-02 Eh
 * total energy  :   -11.0369498 Eh     change       -0.1398141E-02 Eh
 * total energy  :   -11.0369624 Eh     change       -0.1252698E-04 Eh
 * total energy  :   -11.0369637 Eh     change       -0.1392876E-05 Eh
   *** GEOMETRY OPTIMIZATION CONVERGED AFTER 17 ITERATIONS ***

 final structure:
================
5
 xtb: 6.2.2 (9d81278992624c895f80dd42a50cac0aa55982e2)
N         1.26868849052886   -0.01315402677912    0.00333654652536
C         0.22519279636432   -0.71844000873174   -0.46401248758294
C        -0.86994258342187   -0.21427363899756    0.67379146323890
C        -0.86155553170570    0.23235919467670   -0.67846788807842
C         0.23761582823439    0.71350947983172    0.46535136589710

          :  Hamiltonian                  GFN2-xTB          :
         :: gradient norm              0.000386031912 Eh/a0 ::
         :: HOMO-LUMO gap              0.886340918230 eV    ::
         :: SCC energy               -11.171808865964 Eh    ::
         :: -> dispersion             -0.002495102472 Eh    ::
         :: repulsion energy           0.134845099692 Eh    ::

    * Orbital Energies and Occupations

         #    Occupation            Energy/Eh            Energy/eV
      -------------------------------------------------------------
         1        2.0000           -0.7734331             -21.0462
         2        2.0000           -0.6980831             -18.9958
         3        2.0000           -0.6454319             -17.5631
         4        2.0000           -0.6218322             -16.9209
         5        2.0000           -0.5826140             -15.8537
         6        2.0000           -0.5545237             -15.0894
         7        2.0000           -0.5035997             -13.7036
         8        2.0000           -0.4943832             -13.4529
         9        2.0000           -0.4653278             -12.6622
        10        2.0000           -0.4538985             -12.3512
        11        1.0000           -0.4086083             -11.1188 (HOMO)
        12                         -0.3760358             -10.2325 (LUMO)
        13                         -0.3537061              -9.6248
        14                         -0.1955890              -5.3222
        15                         -0.1389521              -3.7811
        16                          0.0308134               0.8385
        17                          0.1401222               3.8129
        18                          0.1592695               4.3339
        19                          0.3031332               8.2487
        20                          0.3222280               8.7683
      -------------------------------------------------------------
                  HL-Gap            0.0325725 Eh            0.8863 eV

     #   Z        covCN         q      C6AA      Î±(0)
     1   7 N      1.909    -0.114    24.253     7.302
     2   6 C      3.757     0.092    19.111     6.233
     3   6 C      2.950    -0.035    28.863     8.812
     4   6 C      2.950    -0.035    28.863     8.812
     5   6 C      3.757     0.092    19.110     6.233

Wiberg/Mayer (AO) data.
largest (>0.10) Wiberg bond orders for each atom
          total WBO             WBO to atom ...

molecular dipole:
Molecule has the following symmetry elements: (C2)
It seems to be the C2 point group
                 x           y           z       tot (Debye)
 q only:       -0.080       0.001      -0.000
   full:       -0.185       0.002      -0.000       0.470

 projected vibrational frequencies (cm-1)
eigval :       -0.00    -0.00     0.00     0.00     0.00     0.00
eigval :     -187.59   272.48   564.65   821.64   838.14   940.85
eigval :      972.30  1402.01  1459.04

   temp. (K)  partition function   enthalpy   heat capacity  entropy
                                   cal/mol     cal/K/mol   cal/K/mol   J/K/mol
  10.00  VIB   1.00                    0.000      0.000     -0.002
         ROT   72.1                   29.809      2.981     11.482
         INT   72.1                   29.809      2.981     11.480
         TR   0.290E+25               49.681      4.968     21.419
         TOT                          79.4904     7.9490    32.8995   137.6513

       T/K    H(0)-H(T)+PV         H(T)/Eh          T*S/Eh         G(T)/Eh
   ------------------------------------------------------------------------
    298.15    0.465396E-02    0.212188E-01    0.297431E-01   -0.852431E-02
    120.00    0.157273E-02    0.181375E-01    0.101360E-01    0.800155E-02
    100.00    0.129270E-02    0.178575E-01    0.819160E-02    0.966593E-02
     80.00    0.102282E-02    0.175876E-01    0.631260E-02    0.112750E-01
     60.00    0.761866E-03    0.173267E-01    0.450943E-02    0.128173E-01
     40.00    0.506773E-03    0.170716E-01    0.279956E-02    0.142720E-01
     20.00    0.253352E-03    0.168182E-01    0.122416E-02    0.155940E-01
     10.00    0.126676E-03    0.166915E-01    0.524286E-03    0.161672E-01 (used)
   ------------------------------------------------------------------------

         :::::::::::::::::::::::::::::::::::::::::::::::::::::
         ::                  THERMODYNAMIC                  ::
         :::::::::::::::::::::::::::::::::::::::::::::::::::::
         :: total free energy         -11.020796535442 Eh   ::
         ::.................................................::
         :: total energy              -11.036963747125 Eh   ::
         :: zero point energy           0.016564821951 Eh   ::
         :: G(RRHO) w/o ZPVE           -0.000397610269 Eh   ::
         :: G(RRHO) contrib.            0.016167211683 Eh   ::
         :::::::::::::::::::::::::::::::::::::::::::::::::::::

           -------------------------------------------------
          | TOTAL ENERGY              -11.036963747125 Eh   |
          | TOTAL ENTHALPY            -11.020272249158 Eh   |
          | TOTAL FREE ENERGY         -11.020796535442 Eh   |
          | GRADIENT NORM               0.000385548022 Eh/Î± |
          | HOMO-LUMO GAP               0.886343214825 eV   |
           -------------------------------------------------

 * finished run on 2020/05/12 at 11:44:21.788
