   * xtb version 6.2.2 (9d81278992624c895f80dd42a50cac0aa55982e2) compiled by '@Darwin' on 04/03/2020
          program call               : xtb --input C3O1_1_S_0.input C3O1_1_S_0.xyz --ohess --molden --namespace C3O1_1_S_0 output.out
          number of atoms            :                     4
          number of electrons        :                    18
          charge                     :                     0
          spin                       :                   0.0

   ID    Z sym.   atoms
    1    6 C      1-3
    2    8 O      4

          :  Hamiltonian                  GFN2-xTB          :
 * total energy  :   -10.0698537 Eh     change       -0.3150102E-09 Eh
 * total energy  :   -10.2170284 Eh     change       -0.1471747E+00 Eh
 * total energy  :   -10.2329795 Eh     change       -0.1595107E-01 Eh
 * total energy  :   -10.2853191 Eh     change       -0.5233964E-01 Eh
 * total energy  :   -10.2914468 Eh     change       -0.6127698E-02 Eh
 * total energy  :   -10.2960760 Eh     change       -0.4629151E-02 Eh
 * total energy  :   -10.2485895 Eh     change        0.4748650E-01 Eh
 * total energy  :   -10.3038814 Eh     change       -0.5529186E-01 Eh
 * total energy  :   -10.3060418 Eh     change       -0.2160479E-02 Eh
 * total energy  :   -10.3058815 Eh     change        0.1603564E-03 Eh
 * total energy  :   -10.3085693 Eh     change       -0.2687798E-02 Eh
 * total energy  :   -10.3095371 Eh     change       -0.9678704E-03 Eh
 * total energy  :   -10.3112241 Eh     change       -0.1686954E-02 Eh
 * total energy  :   -10.3119745 Eh     change       -0.7504136E-03 Eh
 * total energy  :   -10.3122319 Eh     change       -0.2573844E-03 Eh
 * total energy  :   -10.3123226 Eh     change       -0.9068566E-04 Eh
 * total energy  :   -10.3123587 Eh     change       -0.3607369E-04 Eh
 * total energy  :   -10.3123606 Eh     change       -0.1906024E-05 Eh
 * total energy  :   -10.3123617 Eh     change       -0.1142618E-05 Eh
   *** GEOMETRY OPTIMIZATION CONVERGED AFTER 19 ITERATIONS ***

 final structure:
================
4
 xtb: 6.2.2 (9d81278992624c895f80dd42a50cac0aa55982e2)
C         1.88033978816031   -0.03585084587366    0.02048080181608
C         0.62011003391802   -0.00959053199474    0.00708720534544
C        -0.67745921044315    0.01219721866664   -0.00694299216186
O        -1.82299061163517    0.03324415920176   -0.02062601499965

          :  Hamiltonian                  GFN2-xTB          :
         :: gradient norm              0.000865173955 Eh/a0 ::
         :: HOMO-LUMO gap              2.742628454803 eV    ::
         :: SCC energy               -10.509505261839 Eh    ::
         :: -> dispersion             -0.001626920496 Eh    ::
         :: repulsion energy           0.197143633479 Eh    ::

    * Orbital Energies and Occupations

         #    Occupation            Energy/Eh            Energy/eV
      -------------------------------------------------------------
         1        2.0000           -0.8086946             -22.0057
         2        2.0000           -0.6968661             -18.9627
         3        2.0000           -0.6494045             -17.6712
         4        2.0000           -0.6345892             -17.2680
         5        2.0000           -0.6345891             -17.2680
         6        2.0000           -0.6043300             -16.4447
         7        2.0000           -0.4672730             -12.7151
         8        2.0000           -0.4672726             -12.7151
         9        2.0000           -0.4337314             -11.8024 (HOMO)
        10                         -0.3329424              -9.0598 (LUMO)
        11                         -0.3329421              -9.0598
        12                         -0.1353315              -3.6826
        13                         -0.1353297              -3.6825
        14                          0.1550298               4.2186
        15                          0.7709950              20.9798
        16                          1.3847405              37.6807
      -------------------------------------------------------------
                  HL-Gap            0.1007889 Eh            2.7426 eV

     #   Z        covCN         q      C6AA      Î±(0)
     1   6 C      0.982    -0.121    39.834    10.601
     2   6 C      1.962    -0.034    31.982     9.133
     3   6 C      1.838     0.296    24.453     7.989
     4   8 O      0.856    -0.141    17.127     5.549

Wiberg/Mayer (AO) data.
largest (>0.10) Wiberg bond orders for each atom
          total WBO             WBO to atom ...

molecular dipole:
                 x           y           z       tot (Debye)
 q only:       -0.366       0.007      -0.004
   full:       -0.877       0.016      -0.009       2.230

   temp. (K)  partition function   enthalpy   heat capacity  entropy
                                   cal/mol     cal/K/mol   cal/K/mol   J/K/mol
  10.00  VIB   1.00                    0.000      0.000     -0.014
         ROT   43.2                   19.873      1.987      9.471
         INT   43.2                   19.873      1.987      9.458
         TR   0.223E+25               49.681      4.968     20.895
         TOT                          69.5541     6.9554    30.3525   126.9948

       T/K    H(0)-H(T)+PV         H(T)/Eh          T*S/Eh         G(T)/Eh
   ------------------------------------------------------------------------
    298.15    0.490907E-02    0.202873E-01    0.284270E-01   -0.813975E-02
    120.00    0.155324E-02    0.169315E-01    0.943127E-02    0.750019E-02
    100.00    0.124493E-02    0.166231E-01    0.757873E-02    0.904441E-02
     80.00    0.955132E-03    0.163334E-01    0.580474E-02    0.105286E-01
     60.00    0.687773E-03    0.160660E-01    0.412329E-02    0.119427E-01
     40.00    0.445997E-03    0.158242E-01    0.255331E-02    0.132709E-01
     20.00    0.221687E-03    0.155999E-01    0.112128E-02    0.144786E-01
     10.00    0.110842E-03    0.154891E-01    0.483698E-03    0.150054E-01 (used)
   ------------------------------------------------------------------------

         :::::::::::::::::::::::::::::::::::::::::::::::::::::
         ::                  THERMODYNAMIC                  ::
         :::::::::::::::::::::::::::::::::::::::::::::::::::::
         :: total free energy         -10.297356346758 Eh   ::
         ::.................................................::
         :: total energy              -10.312361711228 Eh   ::
         :: zero point energy           0.015378220516 Eh   ::
         :: G(RRHO) w/o ZPVE           -0.000372856045 Eh   ::
         :: G(RRHO) contrib.            0.015005364470 Eh   ::
         :::::::::::::::::::::::::::::::::::::::::::::::::::::

           -------------------------------------------------
          | TOTAL ENERGY              -10.312361711228 Eh   |
          | TOTAL ENTHALPY            -10.296872649199 Eh   |
          | TOTAL FREE ENERGY         -10.297356346758 Eh   |
          | GRADIENT NORM               0.000868513300 Eh/Î± |
          | HOMO-LUMO GAP               2.742606529822 eV   |
           -------------------------------------------------

 * finished run on 2020/05/12 at 11:45:17.688
