   * xtb version 6.2.2 (9d81278992624c895f80dd42a50cac0aa55982e2) compiled by '@Darwin' on 04/03/2020
          program call               : xtb --input C5_4_S_2.input C5_4_S_2.xyz --ohess --molden --namespace C5_4_S_2 output.out
          number of atoms            :                     5
          number of electrons        :                    20
          charge                     :                     0
          spin                       :                   1.0

   ID    Z sym.   atoms
    1    6 C      1-5

          :  Hamiltonian                  GFN2-xTB          :
 * total energy  :   -10.0477353 Eh     change       -0.2263427E-08 Eh
 * total energy  :   -10.1293040 Eh     change       -0.8156863E-01 Eh
 * total energy  :   -10.1450235 Eh     change       -0.1571954E-01 Eh
 * total energy  :   -10.1724659 Eh     change       -0.2744243E-01 Eh
 * total energy  :   -10.1789149 Eh     change       -0.6448926E-02 Eh
 * total energy  :   -10.1990178 Eh     change       -0.2010296E-01 Eh
 * total energy  :   -10.2175256 Eh     change       -0.1850775E-01 Eh
 * total energy  :   -10.2117265 Eh     change        0.5799015E-02 Eh
 * total energy  :   -10.2362213 Eh     change       -0.2449479E-01 Eh
 * total energy  :   -10.2501234 Eh     change       -0.1390207E-01 Eh
 * total energy  :   -10.2732487 Eh     change       -0.4474963E-04 Eh
 * total energy  :   -10.2732938 Eh     change       -0.4501521E-04 Eh
 * total energy  :   -10.2733338 Eh     change       -0.3999872E-04 Eh
 * total energy  :   -10.2733450 Eh     change       -0.1126765E-04 Eh
 * total energy  :   -10.2733533 Eh     change       -0.8277129E-05 Eh
 * total energy  :   -10.2733611 Eh     change       -0.7783874E-05 Eh
 * total energy  :   -10.2733696 Eh     change       -0.8496208E-05 Eh
 * total energy  :   -10.2733753 Eh     change       -0.5753466E-05 Eh
 * total energy  :   -10.2733770 Eh     change       -0.1672850E-05 Eh
   *** GEOMETRY OPTIMIZATION CONVERGED AFTER 36 ITERATIONS ***

 final structure:
================
5
 xtb: 6.2.2 (9d81278992624c895f80dd42a50cac0aa55982e2)
C        -2.54466599003529   -0.01984962482810    0.00033360525548
C        -1.29503075779341   -0.00784546074678   -0.00062516397855
C         1.29525656750528    0.00956095584317   -0.00015892053286
C        -0.00010165218891    0.00259926184209   -0.00015426492642
C         2.54454083251232    0.01553486788962    0.00060474418235

          :  Hamiltonian                  GFN2-xTB          :
         :: gradient norm              0.000536609338 Eh/a0 ::
         :: HOMO-LUMO gap              0.000002069489 eV    ::
         :: SCC energy               -10.560536255892 Eh    ::
         :: -> dispersion             -0.002748817857 Eh    ::
         :: repulsion energy           0.287160532392 Eh    ::

    * Orbital Energies and Occupations

         #    Occupation            Energy/Eh            Energy/eV
      -------------------------------------------------------------
         1        2.0000           -0.6748089             -18.3625
         2        2.0000           -0.6648827             -18.0924
         3        2.0000           -0.6399714             -17.4145
         4        2.0000           -0.5923022             -16.1174
         5        2.0000           -0.5210148             -14.1775
         6        2.0000           -0.5210147             -14.1775
         7        2.0000           -0.4636833             -12.6175
         8        2.0000           -0.4636833             -12.6175
         9        1.9997           -0.4456125             -12.1257
        10        1.0003           -0.4298541             -11.6969
        11        0.5000           -0.3737230             -10.1695 (HOMO)
        12        0.5000           -0.3737229             -10.1695 (LUMO)
        13                         -0.2234588              -6.0806
        14                         -0.2234586              -6.0806
        15                         -0.0969243              -2.6374
        16                         -0.0969217              -2.6374
        17                          0.1086417               2.9563
        18                          0.5229570              14.2304
        19                          1.0430405              28.3826
        20                          1.4474899              39.3882
      -------------------------------------------------------------
                  HL-Gap            0.0000001 Eh            0.0000 eV

     #   Z        covCN         q      C6AA      Î±(0)
     1   6 C      0.983    -0.076    38.310    10.397
     2   6 C      1.962     0.040    30.046     8.852
     3   6 C      1.962     0.040    30.048     8.852
     4   6 C      1.965     0.072    29.263     8.736
     5   6 C      0.983    -0.076    38.303    10.396

Wiberg/Mayer (AO) data.
largest (>0.10) Wiberg bond orders for each atom
          total WBO             WBO to atom ...

molecular dipole:
                 x           y           z       tot (Debye)
 q only:        0.001       0.001      -0.000
   full:        0.002       0.002      -0.001       0.008

   temp. (K)  partition function   enthalpy   heat capacity  entropy
                                   cal/mol     cal/K/mol   cal/K/mol   J/K/mol
  10.00  VIB   1.00                    0.000      0.000     -0.044
         ROT   40.4                   19.873      1.987      9.336
         INT   40.4                   19.873      1.987      9.293
         TR   0.277E+25               49.681      4.968     21.322
         TOT                          69.5541     6.9554    30.6148   128.0922

       T/K    H(0)-H(T)+PV         H(T)/Eh          T*S/Eh         G(T)/Eh
   ------------------------------------------------------------------------
    298.15    0.637525E-02    0.234439E-01    0.313238E-01   -0.787990E-02
    120.00    0.180089E-02    0.188695E-01    0.987790E-02    0.899161E-02
    100.00    0.140429E-02    0.184729E-01    0.787157E-02    0.106013E-01
     80.00    0.104690E-02    0.181155E-01    0.597968E-02    0.121358E-01
     60.00    0.731304E-03    0.177999E-01    0.421355E-02    0.135864E-01
     40.00    0.457407E-03    0.175260E-01    0.258771E-02    0.149383E-01
     20.00    0.221854E-03    0.172905E-01    0.113081E-02    0.161597E-01
     10.00    0.110842E-03    0.171795E-01    0.487878E-03    0.166916E-01 (used)
   ------------------------------------------------------------------------

         :::::::::::::::::::::::::::::::::::::::::::::::::::::
         ::                  THERMODYNAMIC                  ::
         :::::::::::::::::::::::::::::::::::::::::::::::::::::
         :: total free energy         -10.256685425568 Eh   ::
         ::.................................................::
         :: total energy              -10.273377010664 Eh   ::
         :: zero point energy           0.017068621142 Eh   ::
         :: G(RRHO) w/o ZPVE           -0.000377036047 Eh   ::
         :: G(RRHO) contrib.            0.016691585095 Eh   ::
         :::::::::::::::::::::::::::::::::::::::::::::::::::::

           -------------------------------------------------
          | TOTAL ENERGY              -10.273377010664 Eh   |
          | TOTAL ENTHALPY            -10.256197547982 Eh   |
          | TOTAL FREE ENERGY         -10.256685425568 Eh   |
          | GRADIENT NORM               0.000536688684 Eh/Î± |
          | HOMO-LUMO GAP               0.000002072423 eV   |
           -------------------------------------------------

 * finished run on 2020/05/12 at 11:44:33.158
