   * xtb version 6.2.2 (9d81278992624c895f80dd42a50cac0aa55982e2) compiled by '@Darwin' on 04/03/2020
          program call               : xtb --input H1C3N1_11_S_2.input H1C3N1_11_S_2.xyz --ohess --molden --namespace H1C3N1_11_S_2 output.out
          number of atoms            :                     5
          number of electrons        :                    18
          charge                     :                     0
          spin                       :                   1.0

   ID    Z sym.   atoms
    1    6 C      1, 3, 4
    2    7 N      2
    3    1 H      5

          :  Hamiltonian                  GFN2-xTB          :
 * total energy  :    -9.3902707 Eh     change       -0.3592380E-09 Eh
 * total energy  :    -9.4688899 Eh     change       -0.7861915E-01 Eh
 * total energy  :    -9.4782829 Eh     change       -0.9393011E-02 Eh
 * total energy  :    -9.5037493 Eh     change       -0.2546641E-01 Eh
 * total energy  :    -9.5057969 Eh     change       -0.2047629E-02 Eh
 * total energy  :    -9.5129398 Eh     change       -0.7142893E-02 Eh
 * total energy  :    -9.5151686 Eh     change       -0.2228737E-02 Eh
 * total energy  :    -9.5169563 Eh     change       -0.1787739E-02 Eh
 * total energy  :    -9.5177376 Eh     change       -0.7813111E-03 Eh
 * total energy  :    -9.5175291 Eh     change        0.2084625E-03 Eh
 * total energy  :    -9.5180379 Eh     change       -0.5087825E-03 Eh
 * total energy  :    -9.5180843 Eh     change       -0.4634351E-04 Eh
 * total energy  :    -9.5181052 Eh     change       -0.2090880E-04 Eh
 * total energy  :    -9.5181151 Eh     change       -0.9947368E-05 Eh
 * total energy  :    -9.5181211 Eh     change       -0.6003007E-05 Eh
 * total energy  :    -9.5181231 Eh     change       -0.1935041E-05 Eh
   *** GEOMETRY OPTIMIZATION CONVERGED AFTER 16 ITERATIONS ***

 final structure:
================
5
 xtb: 6.2.2 (9d81278992624c895f80dd42a50cac0aa55982e2)
C         1.92221678835202   -0.47025219180565    0.10057208567721
N         0.80268237836697   -0.16104635587734    0.02796536421376
C        -0.53896850837299    0.11358989678488   -0.02241360933610
C        -1.02351451494566    1.23852689221200   -0.43225276831798
H        -1.16241514340034   -0.72081724131390    0.32612892776312

          :  Hamiltonian                  GFN2-xTB          :
         :: gradient norm              0.000683288686 Eh/a0 ::
         :: HOMO-LUMO gap              1.830142549469 eV    ::
         :: SCC energy                -9.706661848871 Eh    ::
         :: -> dispersion             -0.002230417608 Eh    ::
         :: repulsion energy           0.188538720670 Eh    ::

    * Orbital Energies and Occupations

         #    Occupation            Energy/Eh            Energy/eV
      -------------------------------------------------------------
         1        2.0000           -0.6910285             -18.8038
         2        2.0000           -0.6684431             -18.1893
         3        2.0000           -0.6155271             -16.7493
         4        2.0000           -0.5746238             -15.6363
         5        2.0000           -0.5439380             -14.8013
         6        2.0000           -0.5027782             -13.6813
         7        2.0000           -0.4590391             -12.4911
         8        2.0000           -0.4431839             -12.0596
         9        1.0000           -0.4206369             -11.4461
        10        1.0000           -0.3449284              -9.3860 (HOMO)
        11                         -0.2776704              -7.5558 (LUMO)
        12                         -0.2407297              -6.5506
        13                         -0.1738680              -4.7312
        14                          0.0782471               2.1292
        15                          0.2011953               5.4748
        16                          0.6399363              17.4136
        17                          0.9969696              27.1289
      -------------------------------------------------------------
                  HL-Gap            0.0672580 Eh            1.8302 eV

     #   Z        covCN         q      C6AA      Î±(0)
     1   6 C      0.913    -0.105    38.778    10.423
     2   7 N      1.834     0.049    21.048     6.799
Molecule has the following symmetry elements: (sigma)
It seems to be the Cs point group
     3   6 C      2.816     0.053    26.797     8.482
     4   6 C      0.994    -0.095    39.013    10.498
     5   1 H      0.923     0.098     1.803     2.100

Wiberg/Mayer (AO) data.
largest (>0.10) Wiberg bond orders for each atom
          total WBO             WBO to atom ...

molecular dipole:
                 x           y           z       tot (Debye)
 q only:       -0.395      -0.265       0.118
   full:       -0.721      -0.222       0.115       1.940

 projected vibrational frequencies (cm-1)
eigval :       -0.00    -0.00    -0.00     0.00     0.00     0.00
eigval :      203.55   274.23   498.44   535.08   955.89  1156.53
eigval :     1646.66  2153.58  2783.59

   temp. (K)  partition function   enthalpy   heat capacity  entropy
                                   cal/mol     cal/K/mol   cal/K/mol   J/K/mol
  10.00  VIB   1.00                    0.000      0.000     -0.007
         ROT   107.                   29.809      2.981     12.272
         INT   107.                   29.809      2.981     12.266
         TR   0.217E+25               49.681      4.968     20.838
         TOT                          79.4904     7.9490    33.1035   138.5051

       T/K    H(0)-H(T)+PV         H(T)/Eh          T*S/Eh         G(T)/Eh
   ------------------------------------------------------------------------
    298.15    0.527670E-02    0.285312E-01    0.309625E-01   -0.243130E-02
    120.00    0.166690E-02    0.249214E-01    0.103059E-01    0.146154E-01
    100.00    0.134665E-02    0.246011E-01    0.829669E-02    0.163044E-01
     80.00    0.104741E-02    0.243019E-01    0.637065E-02    0.179312E-01
     60.00    0.768913E-03    0.240234E-01    0.453803E-02    0.194854E-01
     40.00    0.507383E-03    0.237619E-01    0.281358E-02    0.209483E-01
     20.00    0.253352E-03    0.235078E-01    0.123074E-02    0.222771E-01
     10.00    0.126676E-03    0.233811E-01    0.527538E-03    0.228536E-01 (used)
   ------------------------------------------------------------------------

         :::::::::::::::::::::::::::::::::::::::::::::::::::::
         ::                  THERMODYNAMIC                  ::
         :::::::::::::::::::::::::::::::::::::::::::::::::::::
         :: total free energy          -9.495269455189 Eh   ::
         ::.................................................::
         :: total energy               -9.518123065295 Eh   ::
         :: zero point energy           0.023254472264 Eh   ::
         :: G(RRHO) w/o ZPVE           -0.000400862158 Eh   ::
         :: G(RRHO) contrib.            0.022853610105 Eh   ::
         :::::::::::::::::::::::::::::::::::::::::::::::::::::

           -------------------------------------------------
          | TOTAL ENERGY               -9.518123065295 Eh   |
          | TOTAL ENTHALPY             -9.494741917015 Eh   |
          | TOTAL FREE ENERGY          -9.495269455189 Eh   |
          | GRADIENT NORM               0.000682814491 Eh/Î± |
          | HOMO-LUMO GAP               1.830183070657 eV   |
           -------------------------------------------------

 * finished run on 2020/05/12 at 11:44:54.772
