   * xtb version 6.2.2 (9d81278992624c895f80dd42a50cac0aa55982e2) compiled by '@Darwin' on 04/03/2020
          program call               : xtb --input H3C1N1_3_S_2.input H3C1N1_3_S_2.xyz --ohess --molden --namespace H3C1N1_3_S_2 output.out
          number of atoms            :                     5
          number of electrons        :                    12
          charge                     :                     0
          spin                       :                   1.0

   ID    Z sym.   atoms
    1    6 C      1
    2    7 N      2
    3    1 H      3-5

          :  Hamiltonian                  GFN2-xTB          :
 * total energy  :    -6.2908485 Eh     change        0.4526735E-09 Eh
 * total energy  :    -6.2956253 Eh     change       -0.4776805E-02 Eh
 * total energy  :    -6.2976366 Eh     change       -0.2011277E-02 Eh
 * total energy  :    -6.2984962 Eh     change       -0.8596638E-03 Eh
 * total energy  :    -6.2989480 Eh     change       -0.4518294E-03 Eh
 * total energy  :    -6.2990419 Eh     change       -0.9383853E-04 Eh
 * total energy  :    -6.2990627 Eh     change       -0.2076392E-04 Eh
 * total energy  :    -6.2990639 Eh     change       -0.1259492E-05 Eh
   *** GEOMETRY OPTIMIZATION CONVERGED AFTER 8 ITERATIONS ***

 final structure:
================
5
 xtb: 6.2.2 (9d81278992624c895f80dd42a50cac0aa55982e2)
C         1.50038056159569   -0.04867994567061   -0.14000246835988
N        -0.12960308106012    0.00420497999805    0.01209319165051
H        -0.37628484769512   -0.19736885313593    0.98063701869790
H        -0.45395404568415    0.93580433086064   -0.24574424931484
H        -0.54053958715630   -0.69396051205215   -0.60698449267369

          :  Hamiltonian                  GFN2-xTB          :
         :: gradient norm              0.000220476968 Eh/a0 ::
         :: HOMO-LUMO gap              4.095351642766 eV    ::
         :: SCC energy                -6.354532481584 Eh    ::
         :: -> dispersion             -0.000977785938 Eh    ::
         :: repulsion energy           0.055468553487 Eh    ::

    * Orbital Energies and Occupations

         #    Occupation            Energy/Eh            Energy/eV
      -------------------------------------------------------------
         1        2.0000           -0.6605077             -17.9733
         2        2.0000           -0.5719236             -15.5628
         3        2.0000           -0.5719236             -15.5628
         4        2.0000           -0.5613403             -15.2748
         5        2.0000           -0.4063816             -11.0582
         6        1.0000           -0.2177735              -5.9259
         7        1.0000           -0.2177735              -5.9259 (HOMO)
         8                         -0.0672721              -1.8306 (LUMO)
         9                          0.0249146               0.6780
        10                          0.1542955               4.1986
        11                          0.1542955               4.1986
      -------------------------------------------------------------
                  HL-Gap            0.1505014 Eh            4.0954 eV

     #   Z        covCN         q      C6AA      Î±(0)
     1   6 C      0.868    -0.440    51.786    12.016
     2   7 N      3.447    -0.152    24.270     7.317
     3   1 H      0.860     0.197     1.120     1.658
     4   1 H      0.860     0.197     1.120     1.658
     5   1 H      0.860     0.197     1.120     1.658
Molecule has the following symmetry elements: (C3) 3*(sigma)
It seems to be the C3v point group

Wiberg/Mayer (AO) data.
largest (>0.10) Wiberg bond orders for each atom
          total WBO             WBO to atom ...

molecular dipole:
                 x           y           z       tot (Debye)
 q only:       -1.723       0.056       0.161
   full:       -2.307       0.075       0.215       5.891

 projected vibrational frequencies (cm-1)
eigval :       -0.00    -0.00    -0.00     0.00     0.00     0.00
eigval :      613.18   663.72   663.87  1150.39  1469.28  1469.36
eigval :     3297.46  3303.58  3303.78

   temp. (K)  partition function   enthalpy   heat capacity  entropy
                                   cal/mol     cal/K/mol   cal/K/mol   J/K/mol
  10.00  VIB   1.00                    0.000      0.000     -0.000
         ROT   5.76                   29.809      2.981      6.461
         INT   5.76                   29.809      2.981      6.460
         TR   0.930E+24               49.681      4.968     19.157
         TOT                          79.4904     7.9490    25.6176   107.1841

       T/K    H(0)-H(T)+PV         H(T)/Eh          T*S/Eh         G(T)/Eh
   ------------------------------------------------------------------------
    298.15    0.421747E-02    0.405192E-01    0.255649E-01    0.149543E-01
    120.00    0.152403E-02    0.378257E-01    0.867957E-02    0.291462E-01
    100.00    0.126760E-02    0.375693E-01    0.699933E-02    0.305700E-01
     80.00    0.101349E-02    0.373152E-01    0.537274E-02    0.319425E-01
     60.00    0.760058E-03    0.370618E-01    0.381090E-02    0.332509E-01
     40.00    0.506704E-03    0.368084E-01    0.233521E-02    0.344732E-01
     20.00    0.253352E-03    0.365551E-01    0.992044E-03    0.355630E-01
     10.00    0.126676E-03    0.364284E-01    0.408243E-03    0.360202E-01 (used)
   ------------------------------------------------------------------------

         :::::::::::::::::::::::::::::::::::::::::::::::::::::
         ::                  THERMODYNAMIC                  ::
         :::::::::::::::::::::::::::::::::::::::::::::::::::::
         :: total free energy          -6.263043755730 Eh   ::
         ::.................................................::
         :: total energy               -6.299063909966 Eh   ::
         :: zero point energy           0.036301720783 Eh   ::
         :: G(RRHO) w/o ZPVE           -0.000281566546 Eh   ::
         :: G(RRHO) contrib.            0.036020154236 Eh   ::
         :::::::::::::::::::::::::::::::::::::::::::::::::::::

           -------------------------------------------------
          | TOTAL ENERGY               -6.299063909966 Eh   |
          | TOTAL ENTHALPY             -6.262635513168 Eh   |
          | TOTAL FREE ENERGY          -6.263043755730 Eh   |
          | GRADIENT NORM               0.000220475179 Eh/Î± |
          | HOMO-LUMO GAP               4.095351682629 eV   |
           -------------------------------------------------

 * finished run on 2020/05/12 at 11:44:28.781
