 Gaussian 16, Revision B.01,

 --------------------------------------------------------
 #P M062X/cc-pvtz nosymm opt(noeigentest) optcyc=120 freq
 --------------------------------------------------------

 -----
 Title
 -----
 Symbolic Z-matrix:
 Charge =  0 Multiplicity = 2

 SCF Done:  E(UM062X) =  -113.842151927     A.U. after   14 cycles
 SCF Done:  E(UM062X) =  -113.847145276     A.U. after   15 cycles
 SCF Done:  E(UM062X) =  -113.847270251     A.U. after   12 cycles
 SCF Done:  E(UM062X) =  -113.847273521     A.U. after   10 cycles
 Optimization completed.
    -- Stationary point found.

 1\1\GINC-DAHU74\FOpt\UM062X\CC-pVTZ\C1H1O1(2)\TINACCIL\25-Sep-2020\0\\
 #P M062X/cc-pvtz nosymm opt(noeigentest) optcyc=120 freq\\Title\\0,2\C
 ,0.0073094098,0.,0.039256276\O,-0.0167853832,0.,1.2073728399\H,0.94850
 60864,0.,-0.5695712097\\Version=ES64L-G16RevB.01\HF=-113.8472735\S2=0.
 753676\S2-1=0.\S2A=0.750008\RMSD=5.993e-09\RMSF=9.863e-05\Dipole=0.399
 1423,0.,-0.5377011\Quadrupole=0.4199676,0.6304053,-1.050373,0.,-0.4297
 199,0.\PG=CS [SG(C1H1O1)]\\@

 Normal termination of Gaussian 16 at Fri Sep 25 11:33:28 2020.

 -------------------------------------------------------------------
 #P Geom=AllCheck Guess=TCheck SCRF=Check GenChk UM062X/CC-pVTZ Freq
 -------------------------------------------------------------------

 Structure from the checkpoint file:  "input.chk"
 -----
 Title
 -----
 Charge =  0 Multiplicity = 2

 SCF Done:  E(UM062X) =  -113.847273521     A.U. after    1 cycles

  Exact polarizability:  14.153  -0.000  10.122  -1.768   0.000  18.552
 Approx polarizability:  14.039  -0.000  11.383  -1.693  -0.000  23.548

                      1                      2                      3
                      A                      A                      A
 Frequencies --   1107.5615              1998.3790              2723.1032
 Red. masses --      1.2520                11.2207                 1.0831
 Frc consts  --      0.9049                26.4013                 4.7321
 IR Inten    --     47.1207                94.1157                57.9794

 - Thermochemistry -
 -------------------
 Temperature   298.150 Kelvin.  Pressure   1.00000 Atm.
 Atom     1 has atomic number  6 and mass  12.00000

 Molecular mass:    29.00274 amu.
 Principal axes and moments of inertia in atomic units:
                           1         2         3
     Eigenvalues --     2.51916  39.72967  42.24883
           X           -0.13350   0.99105   0.00000
           Y           -0.00000   0.00000   1.00000
           Z            0.99105   0.13350   0.00000
 This molecule is an asymmetric top.
 Rotational symmetry number  1.
 Rotational temperatures (Kelvin)     34.38209     2.18008     2.05009
 Rotational constants (GHZ):         716.40646    45.42553    42.71696
 Zero-point vibrational energy      34865.4 (Joules/Mol)
                                    8.33304 (Kcal/Mol)
 Vibrational temperatures:   1593.53  2875.22  3917.94
          (Kelvin)

 Zero-point correction=                           0.013280 (Hartree/Particle)
 Thermal correction to Energy=                    0.016137
 Thermal correction to Enthalpy=                  0.017081
 Thermal correction to Gibbs Free Energy=        -0.008370
 Sum of electronic and zero-point Energies=           -113.833994
 Sum of electronic and thermal Energies=              -113.831137
 Sum of electronic and thermal Enthalpies=            -113.830192
 Sum of electronic and thermal Free Energies=         -113.855644

                     E (Thermal)             CV                S
                      KCal/Mol        Cal/Mol-Kelvin    Cal/Mol-Kelvin
 Total                   10.126              6.248             53.567
 Electronic               0.000              0.000              1.377
 Translational            0.889              2.981             36.028
 Rotational               0.889              2.981             16.099
 Vibrational              8.349              0.286              0.062

 Optimization completed.
    -- Stationary point found.

 1\1\GINC-DAHU74\Freq\UM062X\CC-pVTZ\C1H1O1(2)\TINACCIL\25-Sep-2020\0\\
 #P Geom=AllCheck Guess=TCheck SCRF=Check GenChk UM062X/CC-pVTZ Freq\\T
 itle\\0,2\C,0.0073094098,0.,0.039256276\O,-0.0167853832,0.,1.207372839
 9\H,0.9485060864,0.,-0.5695712097\\Version=ES64L-G16RevB.01\HF=-113.84
 72735\S2=0.753676\S2-1=0.\S2A=0.750008\RMSD=9.402e-10\RMSF=9.863e-05\Z
 eroPoint=0.0132795\Thermal=0.0161369\Dipole=0.3991423,0.,-0.5377011\Di
 poleDeriv=0.2973315,0.,-0.2744937,0.,-0.0935369,0.,-0.3435191,0.,0.790
 6945,-0.2093987,0.,0.0423093,0.,-0.1279555,0.,0.2377943,0.,-0.8946363,

 Normal termination of Gaussian 16 at Fri Sep 25 11:33:42 2020.
 Gaussian 16:  ES64L-G16RevB.01 20-Dec-2017

 -----------------------------------------------
 #P CCSD(T)/aug-cc-pvtz geom=allcheck guess=read
 -----------------------------------------------

 Structure from the checkpoint file:  "input.chk"
 -----
 Title
 -----
 Charge =  0 Multiplicity = 2

                         Standard orientation:
 ---------------------------------------------------------------------
 Center     Atomic      Atomic             Coordinates (Angstroms)
 Number     Number       Type             X           Y           Z
 ---------------------------------------------------------------------
      1          6           0        0.061896    0.581254    0.000000
      2          8           0        0.061896   -0.587111   -0.000000
      3          1           0       -0.866545    1.209362    0.000000
 ---------------------------------------------------------------------

 SCF Done:  E(UHF) =  -113.295151509     A.U. after   16 cycles
 E2 =    -0.3731442890D+00 EUMP2 =    -0.11366829579757D+03
 CCSD(T)
 CCSD(T)= -0.11369214067D+03

 The electronic state is 2-A'.
 Alpha  occ. eigenvalues --  -20.62358 -11.35555  -1.46907  -0.85932  -0.71722
 Alpha  occ. eigenvalues --   -0.65543  -0.58249  -0.39141
 Alpha virt. eigenvalues --    0.02794   0.06326   0.07597   0.08119   0.13068
 Alpha virt. eigenvalues --    0.13322   0.17667   0.19193   0.20533   0.23640
 Alpha virt. eigenvalues --    0.26015   0.26629   0.31387   0.33194   0.34671

  Beta  occ. eigenvalues --  -20.61164 -11.33675  -1.44070  -0.79907  -0.67049
  Beta  occ. eigenvalues --   -0.58254  -0.53015
  Beta virt. eigenvalues --    0.02878   0.05685   0.06674   0.07637   0.11716
  Beta virt. eigenvalues --    0.14126   0.14912   0.17772   0.19807   0.20604
  Beta virt. eigenvalues --    0.25579   0.26685   0.27588   0.31945   0.34164

 Mulliken charges and spin densities:
               1          2
     1  C   -0.149902   0.594733
     2  O   -0.320772   0.186582
     3  H    0.470674   0.218685
 Sum of Mulliken charges =  -0.00000   1.00000

 Dipole moment (field-independent basis, Debye):
    X=             -0.9469    Y=              1.8786    Z=              0.0000  Tot=              2.1037
 Quadrupole moment (field-independent basis, Debye-Ang):
   XX=            -11.3357   YY=            -11.4961   ZZ=            -10.9416
   XY=             -1.0957   XZ=             -0.0000   YZ=             -0.0000

 P4SDQ=-113.676132\CCSD=-113.6745665\CCSD(T)=-113.6921407\S2=0.765462\S
 Normal termination of Gaussian 16 at Fri Sep 25 11:39:37 2020.
