   * xtb version 6.2.2 (9d81278992624c895f80dd42a50cac0aa55982e2) compiled by '@Darwin' on 04/03/2020
          program call               : xtb --input C5_13_S_0.input C5_13_S_0.xyz --ohess --molden --namespace C5_13_S_0 output.out
          number of atoms            :                     5
          number of electrons        :                    20
          charge                     :                     0
          spin                       :                   0.0

   ID    Z sym.   atoms
    1    6 C      1-5

          :  Hamiltonian                  GFN2-xTB          :
 * total energy  :   -10.1500355 Eh     change       -0.6981784E-08 Eh
 * total energy  :   -10.1832586 Eh     change       -0.3322303E-01 Eh
 * total energy  :   -10.2237868 Eh     change       -0.4052827E-01 Eh
 * total energy  :   -10.2271688 Eh     change       -0.3381968E-02 Eh
 * total energy  :   -10.2289685 Eh     change       -0.1799708E-02 Eh
 * total energy  :   -10.2298993 Eh     change       -0.9307996E-03 Eh
 * total energy  :   -10.2317191 Eh     change       -0.1819841E-02 Eh
 * total energy  :   -10.2327826 Eh     change       -0.1063491E-02 Eh
 * total energy  :   -10.2331356 Eh     change       -0.3529401E-03 Eh
 * total energy  :   -10.2331711 Eh     change       -0.3552401E-04 Eh
 * total energy  :   -10.2331877 Eh     change       -0.1660630E-04 Eh
 * total energy  :   -10.2331957 Eh     change       -0.8030443E-05 Eh
 * total energy  :   -10.2331962 Eh     change       -0.4734930E-06 Eh
   *** GEOMETRY OPTIMIZATION CONVERGED AFTER 13 ITERATIONS ***

 final structure:
================
5
 xtb: 6.2.2 (9d81278992624c895f80dd42a50cac0aa55982e2)
C        -1.50087704652502   -0.41127140931484    0.04016539086325
C         0.01598469466339   -0.63771831265193    0.08399350799986
C         0.71059015133943    0.71006886742675   -0.08646277134485
C         1.51926475720884   -0.33369031555508    0.05744281699323
C        -0.74496155668664    0.67261117009509   -0.09513794451149

          :  Hamiltonian                  GFN2-xTB          :
         :: gradient norm              0.000402549388 Eh/a0 ::
         :: HOMO-LUMO gap              1.769146855098 eV    ::
         :: SCC energy               -10.408715605843 Eh    ::
         :: -> dispersion             -0.002762828624 Eh    ::
         :: repulsion energy           0.175519387410 Eh    ::

    * Orbital Energies and Occupations

         #    Occupation            Energy/Eh            Energy/eV
      -------------------------------------------------------------
         1        2.0000           -0.7577643             -20.6198
         2        2.0000           -0.7033530             -19.1392
         3        2.0000           -0.6388872             -17.3850
         4        2.0000           -0.5917013             -16.1010
         5        2.0000           -0.5773593             -15.7107
         6        2.0000           -0.5484818             -14.9250
         7        2.0000           -0.4920148             -13.3884
         8        2.0000           -0.4589466             -12.4886
         9        2.0000           -0.4500502             -12.2465
        10        2.0000           -0.4388124             -11.9407 (HOMO)
        11                         -0.3737973             -10.1715 (LUMO)
        12                         -0.3430616              -9.3352
        13                         -0.2862147              -7.7883
        14                         -0.2187207              -5.9517
        15                         -0.1952488              -5.3130
        16                          0.0222467               0.6054
        17                          0.1439909               3.9182
        18                          0.1806421               4.9155
        19                          0.4460316              12.1371
        20                          0.5973751              16.2554
      -------------------------------------------------------------
                  HL-Gap            0.0650151 Eh            1.7692 eV

     #   Z        covCN         q      C6AA      Î±(0)
     1   6 C      1.960    -0.142    35.073     9.564
     2   6 C      3.899     0.135    18.350     6.089
Molecule has the following symmetry elements: (C2) 2*(sigma)
It seems to be the C2v point group
     3   6 C      2.940     0.074    26.339     8.417
     4   6 C      1.960    -0.142    35.073     9.564
     5   6 C      2.940     0.074    26.339     8.417

Wiberg/Mayer (AO) data.
largest (>0.10) Wiberg bond orders for each atom
          total WBO             WBO to atom ...

molecular dipole:
                 x           y           z       tot (Debye)
 q only:       -0.006       0.231      -0.030
   full:       -0.019       0.759      -0.099       1.947

 projected vibrational frequencies (cm-1)
eigval :       -0.00    -0.00    -0.00     0.00     0.00     0.00
eigval :     -172.69   274.29   453.58   478.43   528.89   795.08
eigval :     1220.99  1595.47  1624.70

   temp. (K)  partition function   enthalpy   heat capacity  entropy
                                   cal/mol     cal/K/mol   cal/K/mol   J/K/mol
  10.00  VIB   1.00                    0.000      0.000     -0.002
         ROT   80.8                   29.809      2.981     11.709
         INT   80.8                   29.809      2.981     11.707
         TR   0.277E+25               49.681      4.968     21.322
         TOT                          79.4904     7.9490    33.0287   138.1921

       T/K    H(0)-H(T)+PV         H(T)/Eh          T*S/Eh         G(T)/Eh
   ------------------------------------------------------------------------
    298.15    0.503655E-02    0.209187E-01    0.303765E-01   -0.945779E-02
    120.00    0.158914E-02    0.174713E-01    0.101800E-01    0.729125E-02
    100.00    0.129789E-02    0.171800E-01    0.821815E-02    0.896186E-02
     80.00    0.102365E-02    0.169058E-01    0.633003E-02    0.105757E-01
     60.00    0.761867E-03    0.166440E-01    0.452183E-02    0.121222E-01
     40.00    0.506769E-03    0.163889E-01    0.280781E-02    0.135811E-01
     20.00    0.253352E-03    0.161355E-01    0.122828E-02    0.149072E-01
     10.00    0.126676E-03    0.160088E-01    0.526346E-03    0.154824E-01 (used)
   ------------------------------------------------------------------------

         :::::::::::::::::::::::::::::::::::::::::::::::::::::
         ::                  THERMODYNAMIC                  ::
         :::::::::::::::::::::::::::::::::::::::::::::::::::::
         :: total free energy         -10.217713759076 Eh   ::
         ::.................................................::
         :: total energy              -10.233196204961 Eh   ::
         :: zero point energy           0.015882115615 Eh   ::
         :: G(RRHO) w/o ZPVE           -0.000399669730 Eh   ::
         :: G(RRHO) contrib.            0.015482445885 Eh   ::
         :::::::::::::::::::::::::::::::::::::::::::::::::::::

           -------------------------------------------------
          | TOTAL ENERGY              -10.233196204961 Eh   |
          | TOTAL ENTHALPY            -10.217187413331 Eh   |
          | TOTAL FREE ENERGY         -10.217713759076 Eh   |
          | GRADIENT NORM               0.000402949410 Eh/Î± |
          | HOMO-LUMO GAP               1.769150103263 eV   |
           -------------------------------------------------

 * finished run on 2020/05/12 at 11:44:37.112
