   * xtb version 6.2.2 (9d81278992624c895f80dd42a50cac0aa55982e2) compiled by '@Darwin' on 04/03/2020
          program call               : xtb --input C4_4_S_0.input C4_4_S_0.xyz --ohess --molden --namespace C4_4_S_0 output.out
          number of atoms            :                     4
          number of electrons        :                    16
          charge                     :                     0
          spin                       :                   0.0

   ID    Z sym.   atoms
    1    6 C      1-4

          :  Hamiltonian                  GFN2-xTB          :
 * total energy  :    -8.1147178 Eh     change       -0.1083347E-09 Eh
 * total energy  :    -8.1407913 Eh     change       -0.2607353E-01 Eh
 * total energy  :    -8.1448675 Eh     change       -0.4076146E-02 Eh
 * total energy  :    -8.1458473 Eh     change       -0.9798820E-03 Eh
 * total energy  :    -8.1458956 Eh     change       -0.4826182E-04 Eh
 * total energy  :    -8.1459085 Eh     change       -0.1292300E-04 Eh
 * total energy  :    -8.1459125 Eh     change       -0.3977784E-05 Eh
   *** GEOMETRY OPTIMIZATION CONVERGED AFTER 7 ITERATIONS ***

 final structure:
================
4
 xtb: 6.2.2 (9d81278992624c895f80dd42a50cac0aa55982e2)
C        -1.17269723569496   -0.02991031318758    0.01999708943754
C        -0.01140361200808    0.78277333415940   -0.09960916987860
C         1.15598746848691    0.02675723958041    0.19872271243727
C         0.02811337921613   -0.77962026055223   -0.11911163199621

          :  Hamiltonian                  GFN2-xTB          :
         :: gradient norm              0.000882539441 Eh/a0 ::
         :: HOMO-LUMO gap              1.163260734707 eV    ::
         :: SCC energy                -8.265742362610 Eh    ::
         :: -> dispersion             -0.001795954810 Eh    ::
         :: repulsion energy           0.119829848365 Eh    ::

    * Orbital Energies and Occupations

         #    Occupation            Energy/Eh            Energy/eV
      -------------------------------------------------------------
         1        2.0000           -0.7472057             -20.3325
         2        2.0000           -0.6660880             -18.1252
         3        2.0000           -0.6058416             -16.4858
         4        2.0000           -0.5603472             -15.2478
         5        2.0000           -0.5312972             -14.4573
         6        2.0000           -0.4989232             -13.5764
         7        2.0000           -0.4597220             -12.5097
         8        2.0000           -0.4322720             -11.7627 (HOMO)
         9                         -0.3895229             -10.5995 (LUMO)
        10                         -0.3709952             -10.0953
        11                         -0.2668403              -7.2611
        12                         -0.2448644              -6.6631
        13                          0.1168157               3.1787
        14                          0.1435817               3.9071
        15                          0.3053782               8.3098
        16                          0.3357065               9.1350
      -------------------------------------------------------------
                  HL-Gap            0.0427491 Eh            1.1633 eV

     #   Z        covCN         q      C6AA      Î±(0)
     1   6 C      1.996    -0.063    32.735     9.240
     2   6 C      2.930     0.063    26.598     8.458
     3   6 C      1.996    -0.063    32.735     9.240
     4   6 C      2.930     0.063    26.598     8.458

Wiberg/Mayer (AO) data.
largest (>0.10) Wiberg bond orders for each atom
Molecule has the following symmetry elements: (C2) 2*(sigma)

molecular dipole:
                 x           y           z       tot (Debye)
 q only:        0.004       0.001      -0.052
   full:        0.033       0.006      -0.429       1.094

 projected vibrational frequencies (cm-1)
eigval :       -0.00    -0.00    -0.00     0.00     0.00     0.00
eigval :      243.10   550.72   830.18  1052.76  1383.51  1419.94

   temp. (K)  partition function   enthalpy   heat capacity  entropy
                                   cal/mol     cal/K/mol   cal/K/mol   J/K/mol
  10.00  VIB   1.00                    0.000      0.000     -0.003
         ROT   36.4                   29.809      2.981     10.127
         INT   36.4                   29.809      2.981     10.124
         TR   0.198E+25               49.681      4.968     20.657
         TOT                          79.4904     7.9490    30.7813   128.7889

       T/K    H(0)-H(T)+PV         H(T)/Eh          T*S/Eh         G(T)/Eh
   ------------------------------------------------------------------------
    298.15    0.457725E-02    0.170621E-01    0.286892E-01   -0.116271E-01
    120.00    0.158721E-02    0.140721E-01    0.975211E-02    0.431995E-02
    100.00    0.130227E-02    0.137871E-01    0.786720E-02    0.591991E-02
     80.00    0.102770E-02    0.135125E-01    0.604891E-02    0.746363E-02
     60.00    0.763326E-03    0.132482E-01    0.430875E-02    0.893942E-02
     40.00    0.506881E-03    0.129917E-01    0.266471E-02    0.103270E-01
     20.00    0.253352E-03    0.127382E-01    0.115666E-02    0.115815E-01
     10.00    0.126676E-03    0.126115E-01    0.490531E-03    0.121210E-01 (used)
   ------------------------------------------------------------------------

         :::::::::::::::::::::::::::::::::::::::::::::::::::::
         ::                  THERMODYNAMIC                  ::
         :::::::::::::::::::::::::::::::::::::::::::::::::::::
         :: total free energy          -8.133791521137 Eh   ::
         ::.................................................::
         :: total energy               -8.145912510487 Eh   ::
         :: zero point energy           0.012484844247 Eh   ::
         :: G(RRHO) w/o ZPVE           -0.000363854897 Eh   ::
         :: G(RRHO) contrib.            0.012120989350 Eh   ::
         :::::::::::::::::::::::::::::::::::::::::::::::::::::

           -------------------------------------------------
          | TOTAL ENERGY               -8.145912510487 Eh   |
          | TOTAL ENTHALPY             -8.133300990224 Eh   |
          | TOTAL FREE ENERGY          -8.133791521137 Eh   |
          | GRADIENT NORM               0.000882620692 Eh/Î± |
          | HOMO-LUMO GAP               1.163261575129 eV   |
           -------------------------------------------------

 * finished run on 2020/05/12 at 14:38:40.602
