   * xtb version 6.2.2 (9d81278992624c895f80dd42a50cac0aa55982e2) compiled by '@Darwin' on 04/03/2020
          program call               : xtb --input H2C3_1_S_2.input H2C3_1_S_2.xyz --ohess --molden --namespace H2C3_1_S_2 output.out
          number of atoms            :                     5
          number of electrons        :                    14
          charge                     :                     0
          spin                       :                   1.0

   ID    Z sym.   atoms
    1    6 C      1-3
    2    1 H      4, 5

          :  Hamiltonian                  GFN2-xTB          :
 * total energy  :    -7.0349120 Eh     change       -0.7258034E-09 Eh
 * total energy  :    -7.0800807 Eh     change       -0.4516867E-01 Eh
 * total energy  :    -7.0971263 Eh     change       -0.1704554E-01 Eh
 * total energy  :    -7.0991897 Eh     change       -0.2063413E-02 Eh
 * total energy  :    -7.1049495 Eh     change       -0.5759789E-02 Eh
 * total energy  :    -7.1061629 Eh     change       -0.1213463E-02 Eh
 * total energy  :    -7.1083679 Eh     change       -0.2205030E-02 Eh
 * total energy  :    -7.1106808 Eh     change       -0.2312838E-02 Eh
 * total energy  :    -7.1177228 Eh     change       -0.7042054E-02 Eh
 * total energy  :    -7.1214119 Eh     change       -0.3689046E-02 Eh
 * total energy  :    -7.2139760 Eh     change       -0.1202960E-03 Eh
 * total energy  :    -7.2141017 Eh     change       -0.1256905E-03 Eh
 * total energy  :    -7.2141206 Eh     change       -0.1892733E-04 Eh
 * total energy  :    -7.2141450 Eh     change       -0.2434478E-04 Eh
 * total energy  :    -7.2141778 Eh     change       -0.3283820E-04 Eh
 * total energy  :    -7.2142200 Eh     change       -0.4216432E-04 Eh
 * total energy  :    -7.2142543 Eh     change       -0.3438126E-04 Eh
 * total energy  :    -7.2142709 Eh     change       -0.1658412E-04 Eh
 * total energy  :    -7.2142733 Eh     change       -0.2340555E-05 Eh
   *** GEOMETRY OPTIMIZATION CONVERGED AFTER 34 ITERATIONS ***

 final structure:
================
5
 xtb: 6.2.2 (9d81278992624c895f80dd42a50cac0aa55982e2)
C         0.00027034547893    0.00028780057920    0.00082767582998
C         1.21269047724664   -0.34528467894168   -0.02742712747266
C        -1.22096818385147    0.31429939359295    0.02529062621682
H        -2.22131483813873    0.62420577700716    0.03734803100278
H         2.22932319926465   -0.59350729223760   -0.03604020557682

          :  Hamiltonian                  GFN2-xTB          :
         :: gradient norm              0.000595578904 Eh/a0 ::
         :: HOMO-LUMO gap              5.984164738351 eV    ::
         :: SCC energy                -7.413167152328 Eh    ::
         :: -> dispersion             -0.001548222493 Eh    ::
         :: repulsion energy           0.198894161640 Eh    ::

    * Orbital Energies and Occupations

         #    Occupation            Energy/Eh            Energy/eV
      -------------------------------------------------------------
         1        2.0000           -0.6172554             -16.7964
         2        2.0000           -0.5828213             -15.8594
         3        2.0000           -0.5221123             -14.2074
         4        2.0000           -0.4860264             -13.2255
         5        2.0000           -0.4491357             -12.2216
         6        2.0000           -0.4491219             -12.2212
         7        1.0000           -0.3242902              -8.8244
         8        1.0000           -0.3242138              -8.8223 (HOMO)
         9                         -0.1042998              -2.8381 (LUMO)
        10                         -0.1040222              -2.8306
        11                          0.0514050               1.3988
        12                          0.2224005               6.0518
        13                          0.7229516              19.6725
        14                          1.4504709              39.4693
      -------------------------------------------------------------
                  HL-Gap            0.2199140 Eh            5.9842 eV

     #   Z        covCN         q      C6AA      Î±(0)
     1   6 C      1.962     0.020    30.560     8.927
     2   6 C      1.912    -0.090    33.588     9.360
     3   6 C      1.912    -0.090    33.588     9.360
     4   1 H      0.928     0.080     1.975     2.197
     5   1 H      0.928     0.080     1.974     2.197

Wiberg/Mayer (AO) data.
largest (>0.10) Wiberg bond orders for each atom
          total WBO             WBO to atom ...

molecular dipole:
                 x           y           z       tot (Debye)
 q only:        0.003       0.010       0.001
   full:        0.006       0.022       0.001       0.057

 projected vibrational frequencies (cm-1)
eigval :       -0.00    -0.00     0.00     0.00     0.00     0.00
eigval :       94.69   256.51   269.35   415.94   429.39  1352.38
eigval :     1901.89  3391.88  3404.56

   temp. (K)  partition function   enthalpy   heat capacity  entropy
                                   cal/mol     cal/K/mol   cal/K/mol   J/K/mol
  10.00  VIB   1.00                    0.000      0.000     -0.038
         ROT   1.41                   29.809      2.981      3.664
         INT   1.41                   29.809      2.981      3.626
         TR   0.139E+25               49.681      4.968     19.962
         TOT                          79.4907     7.9495    23.5878    98.6913

       T/K    H(0)-H(T)+PV         H(T)/Eh          T*S/Eh         G(T)/Eh
   ------------------------------------------------------------------------
    298.15    0.604498E-02    0.322817E-01    0.281258E-01    0.415587E-02
    120.00    0.185598E-02    0.280927E-01    0.881814E-02    0.192746E-01
    100.00    0.148002E-02    0.277168E-01    0.700774E-02    0.207090E-01
     80.00    0.113288E-02    0.273696E-01    0.529818E-02    0.220714E-01
     60.00    0.814304E-03    0.270510E-01    0.370017E-02    0.233509E-01
     40.00    0.521699E-03    0.267584E-01    0.223032E-02    0.245281E-01
     20.00    0.253827E-03    0.264906E-01    0.929502E-03    0.255611E-01
     10.00    0.126677E-03    0.263634E-01    0.375895E-03    0.259875E-01 (used)
   ------------------------------------------------------------------------

         :::::::::::::::::::::::::::::::::::::::::::::::::::::
         ::                  THERMODYNAMIC                  ::
         :::::::::::::::::::::::::::::::::::::::::::::::::::::
         :: total free energy          -7.188285748072 Eh   ::
         ::.................................................::
         :: total energy               -7.214273266336 Eh   ::
         :: zero point energy           0.026236737170 Eh   ::
         :: G(RRHO) w/o ZPVE           -0.000249218905 Eh   ::
         :: G(RRHO) contrib.            0.025987518265 Eh   ::
         :::::::::::::::::::::::::::::::::::::::::::::::::::::

           -------------------------------------------------
          | TOTAL ENERGY               -7.214273266336 Eh   |
          | TOTAL ENTHALPY             -7.187909852628 Eh   |
          | TOTAL FREE ENERGY          -7.188285748072 Eh   |
          | GRADIENT NORM               0.000595573981 Eh/Î± |
          | HOMO-LUMO GAP               5.984165491046 eV   |
           -------------------------------------------------

 * finished run on 2020/05/12 at 11:44:26.210
