   * xtb version 6.2.2 (9d81278992624c895f80dd42a50cac0aa55982e2) compiled by '@Darwin' on 04/03/2020
          program call               : xtb --input H2C1N2_9_S_0.input H2C1N2_9_S_0.xyz --ohess --molden --namespace H2C1N2_9_S_0 output.out
          number of atoms            :                     5
          number of electrons        :                    16
          charge                     :                     0
          spin                       :                   0.0

   ID    Z sym.   atoms
    1    6 C      1
    2    7 N      2, 3
    3    1 H      4, 5

          :  Hamiltonian                  GFN2-xTB          :
 * total energy  :    -8.7963209 Eh     change       -0.1543867E-09 Eh
 * total energy  :    -8.9001849 Eh     change       -0.1038640E+00 Eh
 * total energy  :    -8.9151087 Eh     change       -0.1492380E-01 Eh
 * total energy  :    -8.9568361 Eh     change       -0.4172746E-01 Eh
 * total energy  :    -8.9619038 Eh     change       -0.5067628E-02 Eh
 * total energy  :    -8.9469836 Eh     change        0.1492016E-01 Eh
 * total energy  :    -8.9671182 Eh     change       -0.2013457E-01 Eh
 * total energy  :    -8.9679764 Eh     change       -0.8582819E-03 Eh
 * total energy  :    -8.9678313 Eh     change        0.1451329E-03 Eh
 * total energy  :    -8.9685062 Eh     change       -0.6748375E-03 Eh
 * total energy  :    -8.9686561 Eh     change       -0.1499640E-03 Eh
 * total energy  :    -8.9686868 Eh     change       -0.3070897E-04 Eh
 * total energy  :    -8.9687065 Eh     change       -0.1966104E-04 Eh
 * total energy  :    -8.9687209 Eh     change       -0.1444871E-04 Eh
 * total energy  :    -8.9687246 Eh     change       -0.3677693E-05 Eh
   *** GEOMETRY OPTIMIZATION CONVERGED AFTER 15 ITERATIONS ***

 final structure:
================
5
 xtb: 6.2.2 (9d81278992624c895f80dd42a50cac0aa55982e2)
C        -0.00127097259082   -0.01085947229423   -0.05203794814257
N        -1.16723704169100   -0.30347670473013   -0.11501577101000
N         1.15489386007402    0.21594874296385   -0.29882514483545
H        -1.95594463076686    0.17529813262505    0.26682159964210
H         1.96955878497466   -0.07690969856455    0.19905726434592

          :  Hamiltonian                  GFN2-xTB          :
         :: gradient norm              0.000704322001 Eh/a0 ::
         :: HOMO-LUMO gap              5.926896891597 eV    ::
         :: SCC energy                -9.145229899828 Eh    ::
         :: -> dispersion             -0.001393808560 Eh    ::
         :: repulsion energy           0.176505365514 Eh    ::

    * Orbital Energies and Occupations

         #    Occupation            Energy/Eh            Energy/eV
      -------------------------------------------------------------
         1        2.0000           -0.6560604             -17.8523
         2        2.0000           -0.6341920             -17.2572
         3        2.0000           -0.5616457             -15.2832
         4        2.0000           -0.5386017             -14.6561
         5        2.0000           -0.5086458             -13.8410
         6        2.0000           -0.4896282             -13.3235
         7        2.0000           -0.4088859             -11.1264
         8        2.0000           -0.4036362             -10.9835 (HOMO)
         9                         -0.1858267              -5.0566 (LUMO)
        10                         -0.1824083              -4.9636
        11                          0.0751586               2.0452
        12                          0.1910456               5.1986
        13                          0.4709483              12.8152
        14                          1.1938003              32.4850
      -------------------------------------------------------------
Molecule has the following symmetry elements: (C2)
It seems to be the C2 point group
                  HL-Gap            0.2178095 Eh            5.9269 eV

     #   Z        covCN         q      C6AA      Î±(0)
     1   6 C      1.821     0.202    26.396     8.301
     2   7 N      1.774    -0.287    28.253     7.871
     3   7 N      1.774    -0.287    28.257     7.872
     4   1 H      0.861     0.186     1.179     1.701
     5   1 H      0.861     0.186     1.180     1.701

Wiberg/Mayer (AO) data.
largest (>0.10) Wiberg bond orders for each atom
          total WBO             WBO to atom ...

molecular dipole:
                 x           y           z       tot (Debye)
 q only:        0.010       0.078       0.368
   full:        0.020       0.150       0.707       1.838

 projected vibrational frequencies (cm-1)
eigval :       -0.00    -0.00     0.00     0.00     0.00     0.00
eigval :      442.64   484.19   573.88   807.96   841.79  1378.41
eigval :     2394.94  3555.34  3560.47

   temp. (K)  partition function   enthalpy   heat capacity  entropy
                                   cal/mol     cal/K/mol   cal/K/mol   J/K/mol
  10.00  VIB   1.00                    0.000      0.000     -0.001
         ROT   11.5                   29.809      2.981      7.839
         INT   11.5                   29.809      2.981      7.838
         TR   0.162E+25               49.681      4.968     20.259
         TOT                          79.4904     7.9490    28.0976   117.5602

       T/K    H(0)-H(T)+PV         H(T)/Eh          T*S/Eh         G(T)/Eh
   ------------------------------------------------------------------------
    298.15    0.460952E-02    0.365941E-01    0.273145E-01    0.927965E-02
    120.00    0.153990E-02    0.335245E-01    0.917276E-02    0.243517E-01
    100.00    0.127304E-02    0.332577E-01    0.740090E-02    0.258567E-01
     80.00    0.101457E-02    0.329992E-01    0.569018E-02    0.273090E-01
     60.00    0.760128E-03    0.327447E-01    0.404814E-02    0.286966E-01
     40.00    0.506704E-03    0.324913E-01    0.249331E-02    0.299980E-01
     20.00    0.253352E-03    0.322380E-01    0.107109E-02    0.311669E-01
     10.00    0.126676E-03    0.321113E-01    0.447763E-03    0.316635E-01 (used)
   ------------------------------------------------------------------------

         :::::::::::::::::::::::::::::::::::::::::::::::::::::
         ::                  THERMODYNAMIC                  ::
         :::::::::::::::::::::::::::::::::::::::::::::::::::::
         :: total free energy          -8.937061088619 Eh   ::
         ::.................................................::
         :: total energy               -8.968724613411 Eh   ::
         :: zero point energy           0.031984612035 Eh   ::
         :: G(RRHO) w/o ZPVE           -0.000321087243 Eh   ::
         :: G(RRHO) contrib.            0.031663524792 Eh   ::
         :::::::::::::::::::::::::::::::::::::::::::::::::::::

           -------------------------------------------------
          | TOTAL ENERGY               -8.968724613411 Eh   |
          | TOTAL ENTHALPY             -8.936613325360 Eh   |
          | TOTAL FREE ENERGY          -8.937061088619 Eh   |
          | GRADIENT NORM               0.000704249067 Eh/Î± |
          | HOMO-LUMO GAP               5.926897247092 eV   |
           -------------------------------------------------

 * finished run on 2020/05/12 at 11:45:23.052
