   * xtb version 6.2.2 (9d81278992624c895f80dd42a50cac0aa55982e2) compiled by '@Darwin' on 04/03/2020
          program call               : xtb --input H2C2N1_8_S_3.input H2C2N1_8_S_3.xyz --ohess --molden --namespace H2C2N1_8_S_3 output.out
          number of atoms            :                     5
          number of electrons        :                    15
          charge                     :                     0
          spin                       :                   1.5

   ID    Z sym.   atoms
    1    7 N      1
    2    6 C      2, 3
    3    1 H      4, 5

          :  Hamiltonian                  GFN2-xTB          :
 * total energy  :    -7.8456974 Eh     change        0.2480416E-10 Eh
 * total energy  :    -7.8850639 Eh     change       -0.3936649E-01 Eh
 * total energy  :    -7.8833624 Eh     change        0.1701482E-02 Eh
 * total energy  :    -7.9069771 Eh     change       -0.2361466E-01 Eh
 * total energy  :    -7.9082477 Eh     change       -0.1270617E-02 Eh
 * total energy  :    -7.9098060 Eh     change       -0.1558294E-02 Eh
 * total energy  :    -7.9099347 Eh     change       -0.1287026E-03 Eh
 * total energy  :    -7.9101151 Eh     change       -0.1804471E-03 Eh
 * total energy  :    -7.9101165 Eh     change       -0.1348581E-05 Eh
 * total energy  :    -7.9101206 Eh     change       -0.4163346E-05 Eh
 * total energy  :    -7.9101215 Eh     change       -0.8319406E-06 Eh
   *** GEOMETRY OPTIMIZATION CONVERGED AFTER 11 ITERATIONS ***

 final structure:
================
5
 xtb: 6.2.2 (9d81278992624c895f80dd42a50cac0aa55982e2)
N         0.75411230940897   -0.40401210115984    0.21384597196212
C        -0.48912929936980   -0.04310167014404    0.00007188529062
C         1.77862619736460    0.31306480825004   -0.07488100972713
H        -1.23483105507986   -0.75991007727703    0.30299063751500
H        -0.80877915232392    0.89396004033087   -0.44202748504061

          :  Hamiltonian                  GFN2-xTB          :
         :: gradient norm              0.000467557933 Eh/a0 ::
         :: HOMO-LUMO gap              1.845600602604 eV    ::
         :: SCC energy                -8.015732935535 Eh    ::
         :: -> dispersion             -0.001575076056 Eh    ::
         :: repulsion energy           0.105611441552 Eh    ::

    * Orbital Energies and Occupations

         #    Occupation            Energy/Eh            Energy/eV
      -------------------------------------------------------------
         1        2.0000           -0.6696449             -18.2220
         2        2.0000           -0.6193282             -16.8528
         3        2.0000           -0.5582304             -15.1902
         4        2.0000           -0.5277242             -14.3601
         5        2.0000           -0.5124201             -13.9437
         6        2.0000           -0.4630633             -12.6006
         7        1.0000           -0.4038034             -10.9880
         8        1.0000           -0.3482179              -9.4755
         9        1.0000           -0.2822812              -7.6813 (HOMO)
        10                         -0.2144566              -5.8357 (LUMO)
        11                          0.1172744               3.1912
        12                          0.2332487               6.3470
        13                          0.2995136               8.1502
        14                          0.5403308              14.7031
      -------------------------------------------------------------
                  HL-Gap            0.0678246 Eh            1.8456 eV

     #   Z        covCN         q      C6AA      Î±(0)
     1   7 N      1.821    -0.041    22.739     7.066
     2   6 C      2.818    -0.022    28.532     8.752
     3   6 C      0.967    -0.098    38.912    10.470
     4   1 H      0.926     0.091     1.873     2.140
     5   1 H      0.925     0.069     2.097     2.264

Wiberg/Mayer (AO) data.
largest (>0.10) Wiberg bond orders for each atom
          total WBO             WBO to atom ...

molecular dipole:
                 x           y           z       tot (Debye)
 q only:       -0.683      -0.039      -0.008
   full:       -0.768       0.045      -0.049       1.958

 projected vibrational frequencies (cm-1)
eigval :       -0.00    -0.00    -0.00     0.00     0.00     0.00
eigval :      475.43   572.79   691.08   995.54  1248.94  1336.43
eigval :     1467.12  2973.86  3083.52

   temp. (K)  partition function   enthalpy   heat capacity  entropy
                                   cal/mol     cal/K/mol   cal/K/mol   J/K/mol
  10.00  VIB   1.00                    0.000      0.000     -0.000
         ROT   41.9                   29.809      2.981     10.405
         INT   41.9                   29.809      2.981     10.405
         TR   0.151E+25               49.681      4.968     20.115
         TOT                          79.4904     7.9490    30.5194   127.6933

       T/K    H(0)-H(T)+PV         H(T)/Eh          T*S/Eh         G(T)/Eh
   ------------------------------------------------------------------------
    298.15    0.437819E-02    0.336406E-01    0.281293E-01    0.551124E-02
    120.00    0.153093E-02    0.307933E-01    0.962517E-02    0.211681E-01
    100.00    0.126992E-02    0.305323E-01    0.778319E-02    0.227491E-01
     80.00    0.101393E-02    0.302763E-01    0.599818E-02    0.242781E-01
     60.00    0.760083E-03    0.300225E-01    0.427964E-02    0.257428E-01
     40.00    0.506704E-03    0.297691E-01    0.264768E-02    0.271214E-01
     20.00    0.253352E-03    0.295157E-01    0.114828E-02    0.283675E-01
     10.00    0.126676E-03    0.293891E-01    0.486358E-03    0.289027E-01 (used)
   ------------------------------------------------------------------------

         :::::::::::::::::::::::::::::::::::::::::::::::::::::
         ::                  THERMODYNAMIC                  ::
         :::::::::::::::::::::::::::::::::::::::::::::::::::::
         :: total free energy          -7.881218774987 Eh   ::
         ::.................................................::
         :: total energy               -7.910121478899 Eh   ::
         :: zero point energy           0.029262385911 Eh   ::
         :: G(RRHO) w/o ZPVE           -0.000359681999 Eh   ::
         :: G(RRHO) contrib.            0.028902703912 Eh   ::
         :::::::::::::::::::::::::::::::::::::::::::::::::::::

           -------------------------------------------------
          | TOTAL ENERGY               -7.910121478899 Eh   |
          | TOTAL ENTHALPY             -7.880732416972 Eh   |
          | TOTAL FREE ENERGY          -7.881218774987 Eh   |
          | GRADIENT NORM               0.000467678727 Eh/Î± |
          | HOMO-LUMO GAP               1.845602016533 eV   |
           -------------------------------------------------

 * finished run on 2020/05/12 at 11:44:47.545
