   * xtb version 6.2.2 (9d81278992624c895f80dd42a50cac0aa55982e2) compiled by '@Darwin' on 04/03/2020
          program call               : xtb --input N1O2_0_S_3.input N1O2_0_S_3.xyz --ohess --molden --namespace N1O2_0_S_3 output.out
          number of atoms            :                     3
          number of electrons        :                    17
          charge                     :                     0
          spin                       :                   1.5

   ID    Z sym.   atoms
    1    7 N      1
    2    8 O      2, 3

          :  Hamiltonian                  GFN2-xTB          :
 * total energy  :   -10.7143642 Eh     change       -0.1132783E-09 Eh
 * total energy  :   -10.7278025 Eh     change       -0.1343834E-01 Eh
 * total energy  :   -10.7297612 Eh     change       -0.1958657E-02 Eh
 * total energy  :   -10.7299319 Eh     change       -0.1706642E-03 Eh
 * total energy  :   -10.7299412 Eh     change       -0.9353187E-05 Eh
 * total energy  :   -10.7299425 Eh     change       -0.1232912E-05 Eh
   *** GEOMETRY OPTIMIZATION CONVERGED AFTER 6 ITERATIONS ***

 final structure:
================
3
 xtb: 6.2.2 (9d81278992624c895f80dd42a50cac0aa55982e2)
N        -0.00209651483994    0.43867408909225    0.00000000000000
O        -1.08596154843520   -0.22453105943134    0.00000000000000
O         1.08805806327513   -0.21414302966091    0.00000000000000

          :  Hamiltonian                  GFN2-xTB          :
         :: gradient norm              0.000159729398 Eh/a0 ::
         :: HOMO-LUMO gap             11.472971328976 eV    ::
         :: SCC energy               -10.750717938467 Eh    ::
         :: -> dispersion             -0.000646542318 Eh    ::
         :: repulsion energy           0.020775485146 Eh    ::

    * Orbital Energies and Occupations

         #    Occupation            Energy/Eh            Energy/eV
      -------------------------------------------------------------
         1        2.0000           -0.8117839             -22.0898
         2        2.0000           -0.7881527             -21.4467
         3        2.0000           -0.6918205             -18.8254
         4        2.0000           -0.6540451             -17.7975
         5        2.0000           -0.6454900             -17.5647
         6        2.0000           -0.6372918             -17.3416
         7        2.0000           -0.5503536             -14.9759
         8        1.0000           -0.5267969             -14.3349
         9        1.0000           -0.4492440             -12.2246
Molecule has the following symmetry elements: (C2) 2*(sigma)
It seems to be the C2v point group
        10        1.0000           -0.3670604              -9.9882 (HOMO)
        11                          0.0545635               1.4847 (LUMO)
        12                          0.1720319               4.6812
      -------------------------------------------------------------
                  HL-Gap            0.4216239 Eh           11.4730 eV

     #   Z        covCN         q      C6AA      Î±(0)
     1   7 N      1.844     0.270    17.464     6.193
     2   8 O      0.923    -0.135    17.019     5.532
     3   8 O      0.923    -0.135    17.019     5.532

Wiberg/Mayer (AO) data.
largest (>0.10) Wiberg bond orders for each atom
          total WBO             WBO to atom ...

molecular dipole:
                 x           y           z       tot (Debye)
 q only:       -0.002       0.336      -0.000
   full:       -0.002       0.350      -0.000       0.890

 projected vibrational frequencies (cm-1)
eigval :       -0.00    -0.00     0.00     0.00     0.00     0.00
eigval :      472.69  1278.75  1345.40

   temp. (K)  partition function   enthalpy   heat capacity  entropy
                                   cal/mol     cal/K/mol   cal/K/mol   J/K/mol
  10.00  VIB   1.00                    0.000      0.000     -0.000
         ROT   19.2                   29.809      2.981      8.854
         INT   19.2                   29.809      2.981      8.854
         TR   0.185E+25               49.681      4.968     20.528
         TOT                          79.4904     7.9490    29.3818   122.9333

       T/K    H(0)-H(T)+PV         H(T)/Eh          T*S/Eh         G(T)/Eh
   ------------------------------------------------------------------------
    298.15    0.404346E-02    0.110986E-01    0.271507E-01   -0.160521E-01
    120.00    0.152758E-02    0.858271E-02    0.940377E-02   -0.821057E-03
    100.00    0.126916E-02    0.832429E-02    0.760101E-02    0.723275E-03
     80.00    0.101385E-02    0.806897E-02    0.585303E-02    0.221595E-02
     60.00    0.760082E-03    0.781521E-02    0.417084E-02    0.364437E-02
     40.00    0.506704E-03    0.756183E-02    0.257515E-02    0.498668E-02
     20.00    0.253352E-03    0.730848E-02    0.111202E-02    0.619647E-02
     10.00    0.126676E-03    0.718180E-02    0.468228E-03    0.671358E-02 (used)
   ------------------------------------------------------------------------

         :::::::::::::::::::::::::::::::::::::::::::::::::::::
         ::                  THERMODYNAMIC                  ::
         :::::::::::::::::::::::::::::::::::::::::::::::::::::
         :: total free energy         -10.723228876604 Eh   ::
         ::.................................................::
         :: total energy              -10.729942453344 Eh   ::
         :: zero point energy           0.007055128959 Eh   ::
         :: G(RRHO) w/o ZPVE           -0.000341552219 Eh   ::
         :: G(RRHO) contrib.            0.006713576740 Eh   ::
         :::::::::::::::::::::::::::::::::::::::::::::::::::::

           -------------------------------------------------
          | TOTAL ENERGY              -10.729942453344 Eh   |
          | TOTAL ENTHALPY            -10.722760648370 Eh   |
          | TOTAL FREE ENERGY         -10.723228876604 Eh   |
          | GRADIENT NORM               0.000159746555 Eh/Î± |
          | HOMO-LUMO GAP              11.472971241878 eV   |
           -------------------------------------------------

 * finished run on 2020/05/12 at 11:45:16.572
