   * xtb version 6.2.2 (9d81278992624c895f80dd42a50cac0aa55982e2) compiled by '@Darwin' on 04/03/2020
          program call               : xtb --input H2C1O2_5_S_2.input H2C1O2_5_S_2.xyz --ohess --molden --namespace H2C1O2_5_S_2 output.out
          number of atoms            :                     5
          number of electrons        :                    18
          charge                     :                     0
          spin                       :                   1.0

   ID    Z sym.   atoms
    1    6 C      1
    2    8 O      2, 3
    3    1 H      4, 5

          :  Hamiltonian                  GFN2-xTB          :
 * total energy  :   -10.8837557 Eh     change       -0.6035705E-10 Eh
 * total energy  :   -10.9696759 Eh     change       -0.8592018E-01 Eh
 * total energy  :   -11.0311376 Eh     change       -0.6146169E-01 Eh
 * total energy  :   -11.0544540 Eh     change       -0.2331642E-01 Eh
 * total energy  :   -11.0799858 Eh     change       -0.2553181E-01 Eh
 * total energy  :   -11.0877723 Eh     change       -0.7786498E-02 Eh
 * total energy  :   -11.0890088 Eh     change       -0.1236546E-02 Eh
 * total energy  :   -11.0895487 Eh     change       -0.5398769E-03 Eh
 * total energy  :   -11.0896696 Eh     change       -0.1209313E-03 Eh
 * total energy  :   -11.0896749 Eh     change       -0.5253036E-05 Eh
 * total energy  :   -11.0896757 Eh     change       -0.8010870E-06 Eh
   *** GEOMETRY OPTIMIZATION CONVERGED AFTER 11 ITERATIONS ***

 final structure:
================
5
 xtb: 6.2.2 (9d81278992624c895f80dd42a50cac0aa55982e2)
C        -0.02085711989231    0.00059027299632   -0.00044797854170
O         0.79554662373673    0.07008165200857   -1.01658060301639
O         0.74595550050204   -0.11367047472890    1.04970064334731
H        -0.78297728212388   -0.83818121816571   -0.09333024157593
H        -0.73766772222258    0.88118076788972    0.06065817978671

          :  Hamiltonian                  GFN2-xTB          :
         :: gradient norm              0.000311592674 Eh/a0 ::
         :: HOMO-LUMO gap             13.576040691740 eV    ::
         :: SCC energy               -11.147175145522 Eh    ::
         :: -> dispersion             -0.001132941534 Eh    ::
         :: repulsion energy           0.057499412734 Eh    ::

    * Orbital Energies and Occupations

         #    Occupation            Energy/Eh            Energy/eV
      -------------------------------------------------------------
         1        2.0000           -0.7640748             -20.7915
         2        2.0000           -0.7328757             -19.9426
         3        2.0000           -0.6674466             -18.1621
         4        2.0000           -0.6226855             -16.9441
         5        2.0000           -0.6077799             -16.5385
         6        2.0000           -0.5878619             -15.9965
         7        2.0000           -0.4945576             -13.4576
         8        2.0000           -0.4870126             -13.2523
         9        1.0000           -0.4571475             -12.4396
        10        1.0000           -0.4338766             -11.8064 (HOMO)
        11                          0.0650337               1.7697 (LUMO)
        12                          0.0784547               2.1349
        13                          0.1920597               5.2262
        14                          0.3051160               8.3026
      -------------------------------------------------------------
Molecule has the following symmetry elements: (C2) 2*(sigma)
It seems to be the C2v point group
                  HL-Gap            0.4989103 Eh           13.5760 eV

     #   Z        covCN         q      C6AA      Î±(0)
     1   6 C      3.541     0.277    17.267     6.089
     2   8 O      0.861    -0.280    19.417     5.908
     3   8 O      0.861    -0.280    19.417     5.908
     4   1 H      0.916     0.141     1.456     1.887
     5   1 H      0.916     0.141     1.456     1.887

Wiberg/Mayer (AO) data.
largest (>0.10) Wiberg bond orders for each atom
          total WBO             WBO to atom ...

molecular dipole:
                 x           y           z       tot (Debye)
 q only:       -1.230       0.035      -0.026
   full:       -1.524       0.043      -0.033       3.875

 projected vibrational frequencies (cm-1)
eigval :       -0.00    -0.00    -0.00     0.00     0.00     0.00
eigval :      515.47   734.35  1013.08  1155.20  1180.39  1212.29
eigval :     1285.74  2356.88  2487.78

   temp. (K)  partition function   enthalpy   heat capacity  entropy
                                   cal/mol     cal/K/mol   cal/K/mol   J/K/mol
  10.00  VIB   1.00                    0.000      0.000     -0.000
         ROT   29.7                   29.809      2.981      9.721
         INT   29.7                   29.809      2.981      9.721
         TR   0.186E+25               49.681      4.968     20.529
         TOT                          79.4904     7.9490    30.2505   126.5680

       T/K    H(0)-H(T)+PV         H(T)/Eh          T*S/Eh         G(T)/Eh
   ------------------------------------------------------------------------
    298.15    0.419055E-02    0.313946E-01    0.277336E-01    0.366100E-02
    120.00    0.152552E-02    0.287295E-01    0.956737E-02    0.191622E-01
    100.00    0.126826E-02    0.284723E-01    0.773840E-02    0.207339E-01
     80.00    0.101364E-02    0.282176E-01    0.596354E-02    0.222541E-01
     60.00    0.760066E-03    0.279641E-01    0.425389E-02    0.237102E-01
     40.00    0.506704E-03    0.277107E-01    0.263053E-02    0.250802E-01
     20.00    0.253352E-03    0.274574E-01    0.113970E-02    0.263177E-01
     10.00    0.126676E-03    0.273307E-01    0.482072E-03    0.268486E-01 (used)
   ------------------------------------------------------------------------

         :::::::::::::::::::::::::::::::::::::::::::::::::::::
         ::                  THERMODYNAMIC                  ::
         :::::::::::::::::::::::::::::::::::::::::::::::::::::
         :: total free energy         -11.062827089866 Eh   ::
         ::.................................................::
         :: total energy              -11.089675707796 Eh   ::
         :: zero point energy           0.027204014073 Eh   ::
         :: G(RRHO) w/o ZPVE           -0.000355396143 Eh   ::
         :: G(RRHO) contrib.            0.026848617930 Eh   ::
         :::::::::::::::::::::::::::::::::::::::::::::::::::::

           -------------------------------------------------
          | TOTAL ENERGY              -11.089675707796 Eh   |
          | TOTAL ENTHALPY            -11.062345017707 Eh   |
          | TOTAL FREE ENERGY         -11.062827089866 Eh   |
          | GRADIENT NORM               0.000311586539 Eh/Î± |
          | HOMO-LUMO GAP              13.576040240457 eV   |
           -------------------------------------------------

 * finished run on 2020/05/12 at 11:43:53.441
