   * xtb version 6.2.2 (9d81278992624c895f80dd42a50cac0aa55982e2) compiled by '@Darwin' on 04/03/2020
          program call               : xtb --input H2C1N2_7_S_0.input H2C1N2_7_S_0.xyz --ohess --molden --namespace H2C1N2_7_S_0 output.out
          number of atoms            :                     5
          number of electrons        :                    16
          charge                     :                     0
          spin                       :                   0.0

   ID    Z sym.   atoms
    1    6 C      1
    2    7 N      2, 3
    3    1 H      4, 5

          :  Hamiltonian                  GFN2-xTB          :
 * total energy  :    -8.7234528 Eh     change       -0.7627481E-09 Eh
 * total energy  :    -8.7886853 Eh     change       -0.6523252E-01 Eh
 * total energy  :    -8.8166076 Eh     change       -0.2792222E-01 Eh
 * total energy  :    -8.8565818 Eh     change       -0.3997428E-01 Eh
 * total energy  :    -8.8635776 Eh     change       -0.6995727E-02 Eh
 * total energy  :    -8.8692749 Eh     change       -0.5697337E-02 Eh
 * total energy  :    -8.8677796 Eh     change        0.1495299E-02 Eh
 * total energy  :    -8.8704779 Eh     change       -0.2698252E-02 Eh
 * total energy  :    -8.8697381 Eh     change        0.7397905E-03 Eh
 * total energy  :    -8.8706999 Eh     change       -0.9618053E-03 Eh
 * total energy  :    -8.8707153 Eh     change       -0.1547031E-04 Eh
 * total energy  :    -8.8707247 Eh     change       -0.9336711E-05 Eh
 * total energy  :    -8.8707270 Eh     change       -0.2293269E-05 Eh
   *** GEOMETRY OPTIMIZATION CONVERGED AFTER 13 ITERATIONS ***

 final structure:
================
5
 xtb: 6.2.2 (9d81278992624c895f80dd42a50cac0aa55982e2)
C        -0.51021369986030   -0.27988996715131    0.00180482557979
N         0.71245896414444    0.20696377743537    0.43257676314322
N        -0.61447427269270    0.95063240745288    0.10800921747696
H        -0.98492732061900   -1.20615553865783   -0.22274738197192
H         1.39715632902756    0.32844832092090   -0.31964442422804

          :  Hamiltonian                  GFN2-xTB          :
         :: gradient norm              0.000712508311 Eh/a0 ::
         :: HOMO-LUMO gap              3.289421623901 eV    ::
         :: SCC energy                -8.980397897488 Eh    ::
         :: -> dispersion             -0.001449076562 Eh    ::
         :: repulsion energy           0.109670905532 Eh    ::

    * Orbital Energies and Occupations

         #    Occupation            Energy/Eh            Energy/eV
      -------------------------------------------------------------
         1        2.0000           -0.7279816             -19.8094
         2        2.0000           -0.6184235             -16.8282
         3        2.0000           -0.6061008             -16.4928
         4        2.0000           -0.5691970             -15.4886
         5        2.0000           -0.5152652             -14.0211
         6        2.0000           -0.4924259             -13.3996
         7        2.0000           -0.4497949             -12.2395
         8        2.0000           -0.4001898             -10.8897 (HOMO)
         9                         -0.2793057              -7.6003 (LUMO)
        10                         -0.1775542              -4.8315
        11                          0.0211862               0.5765
        12                          0.1236919               3.3658
        13                          0.1433436               3.9006
        14                          0.7265096              19.7693
      -------------------------------------------------------------
                  HL-Gap            0.1208840 Eh            3.2894 eV

     #   Z        covCN         q      C6AA      Î±(0)
     1   6 C      2.747     0.177    24.185     8.053
     2   7 N      2.721    -0.217    25.732     7.534
     3   7 N      1.863    -0.170    25.480     7.482
     4   1 H      0.927     0.062     2.174     2.306
     5   1 H      0.859     0.148     1.416     1.864

Wiberg/Mayer (AO) data.
largest (>0.10) Wiberg bond orders for each atom
          total WBO             WBO to atom ...

molecular dipole:
                 x           y           z       tot (Debye)
 q only:        0.009      -0.533      -0.327
   full:        0.029      -0.929      -0.702       2.959

 projected vibrational frequencies (cm-1)
eigval :       -0.00    -0.00    -0.00    -0.00     0.00     0.00
eigval :      696.05   782.66   930.43  1038.88  1166.94  1256.28
eigval :     1820.26  3211.29  3220.05

   temp. (K)  partition function   enthalpy   heat capacity  entropy
                                   cal/mol     cal/K/mol   cal/K/mol   J/K/mol
  10.00  VIB   1.00                    0.000      0.000     -0.000
         ROT   42.3                   29.809      2.981     10.422
         INT   42.3                   29.809      2.981     10.422
         TR   0.162E+25               49.681      4.968     20.259
         TOT                          79.4904     7.9490    30.6816   128.3718

       T/K    H(0)-H(T)+PV         H(T)/Eh          T*S/Eh         G(T)/Eh
   ------------------------------------------------------------------------
    298.15    0.408822E-02    0.362624E-01    0.277858E-01    0.847661E-02
    120.00    0.152125E-02    0.336954E-01    0.964479E-02    0.240506E-01
    100.00    0.126696E-02    0.334411E-01    0.780560E-02    0.256355E-01
     80.00    0.101342E-02    0.331876E-01    0.601825E-02    0.271693E-01
     60.00    0.760056E-03    0.329342E-01    0.429509E-02    0.286391E-01
     40.00    0.506704E-03    0.326809E-01    0.265800E-02    0.300229E-01
     20.00    0.253352E-03    0.324275E-01    0.115344E-02    0.312741E-01
     10.00    0.126676E-03    0.323008E-01    0.488942E-03    0.318119E-01 (used)
   ------------------------------------------------------------------------

         :::::::::::::::::::::::::::::::::::::::::::::::::::::
         ::                  THERMODYNAMIC                  ::
         :::::::::::::::::::::::::::::::::::::::::::::::::::::
         :: total free energy          -8.838915061622 Eh   ::
         ::.................................................::
         :: total energy               -8.870726965766 Eh   ::
         :: zero point energy           0.032174170571 Eh   ::
         :: G(RRHO) w/o ZPVE           -0.000362266427 Eh   ::
         :: G(RRHO) contrib.            0.031811904144 Eh   ::
         :::::::::::::::::::::::::::::::::::::::::::::::::::::

           -------------------------------------------------
          | TOTAL ENERGY               -8.870726965766 Eh   |
          | TOTAL ENTHALPY             -8.838426119180 Eh   |
          | TOTAL FREE ENERGY          -8.838915061622 Eh   |
          | GRADIENT NORM               0.000712561704 Eh/Î± |
          | HOMO-LUMO GAP               3.289421819559 eV   |
           -------------------------------------------------

 * finished run on 2020/05/12 at 11:45:22.352
