 Gaussian 16, Revision B.01,

 ----------------------------------------------------------------
 #P M062X/cc-pvtz nosymm opt(noeigentest) optcyc=120 freq scf=xqc
 ----------------------------------------------------------------

 -----
 Title
 -----
 Symbolic Z-matrix:
 Charge =  0 Multiplicity = 1

 SCF Done:  E(RM062X) =  -417.805786828     A.U. after   19 cycles
 SCF Done:  E(RM062X) =  -417.812111183     A.U. after   15 cycles
 SCF Done:  E(RM062X) =  -417.812404540     A.U. after   13 cycles
 SCF Done:  E(RM062X) =  -417.812411377     A.U. after   11 cycles
 SCF Done:  E(RM062X) =  -417.812409265     A.U. after   11 cycles
 SCF Done:  E(RM062X) =  -417.812414648     A.U. after   11 cycles
 Optimization completed.
    -- Stationary point found.
 Normal termination of Gaussian 16 at Mon Oct 12 17:27:07 2020.

 -------------------------------------------------------------------
 #P Geom=AllCheck Guess=TCheck SCRF=Check GenChk RM062X/CC-pVTZ Freq
 -------------------------------------------------------------------

 Structure from the checkpoint file:  "input.chk"
 -----
 Title
 -----
 Charge =  0 Multiplicity = 1

 SCF Done:  E(RM062X) =  -417.812414648     A.U. after    1 cycles

  Exact polarizability:  47.432  -0.000  47.432   0.165   0.000 544.751
 Approx polarizability:  59.604  -0.000  59.604   0.323   0.0001140.530

                      1                      2                      3
                      A                      A                      A
 Frequencies --     31.8852                82.9971                83.1231
 Red. masses --     12.8519                12.3474                12.4168
 Frc consts  --      0.0077                 0.0501                 0.0505
 IR Inten    --      1.7645                 1.9517                 1.7468

                      4                      5                      6
                      A                      A                      A
 Frequencies --    155.6643               155.6734               235.7132
 Red. masses --     12.0977                12.1036                12.0211
 Frc consts  --      0.1727                 0.1728                 0.3935
 IR Inten    --      1.8475                 1.8792                 1.6934

                      7                      8                      9
                      A                      A                      A
 Frequencies --    235.8008               412.0123               485.1591
 Red. masses --     12.0143                12.7209                12.0179
 Frc consts  --      0.3936                 1.2723                 1.6667
 IR Inten    --      1.7853                 1.7591                 0.2942

                     10                     11                     12
                      A                      A                      A
 Frequencies --    485.8463               538.8063               538.8674
 Red. masses --     12.0069                12.0067                12.0046
 Frc consts  --      1.6699                 2.0537                 2.0538
 IR Inten    --      0.3763                 2.5400                 2.6255

                     13                     14                     15
                      A                      A                      A
 Frequencies --    570.5870               570.5893               579.6720
 Red. masses --     12.0007                12.0005                12.4868
 Frc consts  --      2.3020                 2.3020                 2.4721
 IR Inten    --     12.8600                12.9273                28.8139

                     16                     17                     18
                      A                      A                      A
 Frequencies --    579.7091               814.9667              1202.5729
 Red. masses --     12.4724                12.5339                12.3709
 Frc consts  --      2.4696                 4.9047                10.5408
 IR Inten    --     28.5947                22.3907                25.7899

                     19                     20                     21
                      A                      A                      A
 Frequencies --   1569.8152              1936.2026              2118.5430
 Red. masses --     12.2541                12.1838                12.0692
 Frc consts  --     17.7922                26.9113                31.9156
 IR Inten    --      6.0074              1440.9376             11173.5459

                     22                     23                     24
                      A                      A                      A
 Frequencies --   2166.2894              2289.5769              2383.0703
 Red. masses --     12.1624                12.0955                12.3140
 Frc consts  --     33.6280                37.3580                41.2024
 IR Inten    --  12777.5367                 5.1131              1633.9216

 - Thermochemistry -
 -------------------
 Temperature   298.150 Kelvin.  Pressure   1.00000 Atm.
 Atom     1 has atomic number  6 and mass  12.00000

 Molecular mass:   123.99491 amu.
 Principal axes and moments of inertia in atomic units:
                           1         2         3
     Eigenvalues --     0.001906114.857376114.85927
           X            0.00048   1.00000   0.00001
           Y           -0.00000  -0.00001   1.00000
           Z            1.00000  -0.00048  -0.00000
 This molecule is an asymmetric top.
 Rotational symmetry number  1.
 Rotational temperatures (Kelvin)  45556.18567     0.01416     0.01416
 Rotational constants (GHZ):      949236.83519     0.29514     0.29514
 Zero-point vibrational energy     120961.3 (Joules/Mol)
                                   28.91043 (Kcal/Mol)
 Warning -- explicit consideration of  16 degrees of freedom as
           vibrations may cause significant error
 Vibrational temperatures:     45.88   119.41   119.60   223.97   223.98
          (Kelvin)            339.14   339.26   592.79   698.04   699.02
                              775.22   775.31   820.95   820.95   834.02
                              834.07  1172.56  1730.23  2258.61  2785.76
                             3048.11  3116.81  3294.19  3428.71

 Zero-point correction=                           0.046072 (Hartree/Particle)
 Thermal correction to Energy=                    0.055548
 Thermal correction to Enthalpy=                  0.056492
 Thermal correction to Gibbs Free Energy=         0.015084
 Sum of electronic and zero-point Energies=           -417.766343
 Sum of electronic and thermal Energies=              -417.756866
 Sum of electronic and thermal Enthalpies=            -417.755922
 Sum of electronic and thermal Free Energies=         -417.797331

                     E (Thermal)             CV                S
                      KCal/Mol        Cal/Mol-Kelvin    Cal/Mol-Kelvin
 Total                   34.857             30.832             87.151
 Electronic               0.000              0.000              0.000
 Translational            0.889              2.981             40.359
 Rotational               0.889              2.981             18.903
 Vibrational             33.080             24.870             27.889
 Vibration     1          0.594              1.983              5.709
 Vibration     2          0.600              1.961              3.819
 Vibration     3          0.600              1.961              3.816
 Vibration     4          0.620              1.896              2.602
 Vibration     5          0.620              1.896              2.602
 Vibration     6          0.655              1.786              1.835
 Vibration     7          0.655              1.786              1.834
 Vibration     8          0.776              1.444              0.920
 Vibration     9          0.841              1.283              0.696
 Vibration    10          0.842              1.281              0.694
 Vibration    11          0.894              1.164              0.568
 Vibration    12          0.894              1.164              0.568
 Vibration    13          0.927              1.095              0.503
 Vibration    14          0.927              1.095              0.503
 Vibration    15          0.936              1.075              0.486
 Vibration    16          0.936              1.075              0.486

 Optimization completed.
    -- Stationary point found.
 Normal termination of Gaussian 16 at Mon Oct 12 17:29:48 2020.
 Gaussian 16:  ES64L-G16RevB.01 20-Dec-2017

 -----------------------------------------------
 #P CCSD(T)/aug-cc-pvtz geom=allcheck guess=read
 -----------------------------------------------

 Structure from the checkpoint file:  "input.chk"
 -----
 Title
 -----
 Charge =  0 Multiplicity = 1

                         Standard orientation:
 ---------------------------------------------------------------------
 Center     Atomic      Atomic             Coordinates (Angstroms)
 Number     Number       Type             X           Y           Z
 ---------------------------------------------------------------------
      1          6           0       -2.081340   -0.001493    0.000000
      2          6           0       -0.797784   -0.001944    0.000000
      3          6           0        0.464289   -0.002602    0.000000
      4          6           0        1.745413   -0.002241   -0.000000
      5          6           0        3.006602   -0.001106   -0.000000
      6          6           0        4.291866    0.001210    0.000000
      7          8           0        5.440824    0.003041    0.000000
      8          6           0       -3.340369   -0.000278    0.000000
      9          6           0       -4.635110    0.001251    0.000000
     10          6           0       -5.907999    0.003148   -0.000000
 ---------------------------------------------------------------------

 SCF Done:  E(RHF) =  -415.435313414     A.U. after   13 cycles
 E2 =    -0.1596639544D+01 EUMP2 =    -0.41703195295809D+03
 CCSD(T)
 CCSD(T)= -0.41709626195D+03

 The electronic state is 1-A.
 Alpha  occ. eigenvalues --  -20.68988 -11.45857 -11.39913 -11.38314 -11.37202
 Alpha  occ. eigenvalues --  -11.29496 -11.29336 -11.28873 -11.27920 -11.22676
 Alpha  occ. eigenvalues --   -1.53961  -1.18312  -1.15145  -1.10709  -1.05196
 Alpha  occ. eigenvalues --   -0.99511  -0.92773  -0.86817  -0.82342  -0.78980
 Alpha  occ. eigenvalues --   -0.69259  -0.69259  -0.58139  -0.58139  -0.52267
 Alpha  occ. eigenvalues --   -0.52267  -0.45839  -0.43649  -0.43649  -0.32715
 Alpha  occ. eigenvalues --   -0.32715
 Alpha virt. eigenvalues --   -0.05905  -0.05905   0.03136   0.04275   0.05512
 Alpha virt. eigenvalues --    0.05512   0.06155   0.07364   0.07364   0.07441
 Alpha virt. eigenvalues --    0.08203   0.08203   0.09601   0.09875   0.09875

 Mulliken charges:
               1
     1  C    0.449792
     2  C   -0.290496
     3  C    0.303341
     4  C    0.084365
     5  C    0.749355
     6  C   -0.272857
     7  O   -0.483766
     8  C    0.421040
     9  C   -0.005081
    10  C   -0.955692
 Sum of Mulliken charges =  -0.00000

 Dipole moment (field-independent basis, Debye):
    X=              6.6378    Y=             -0.0045    Z=              0.0000  Tot=              6.6378
 Quadrupole moment (field-independent basis, Debye-Ang):
   XX=            -94.1787   YY=            -55.6765   ZZ=            -55.6765
   XY=              0.0202   XZ=             -0.0000   YZ=              0.0000

 6.977958\CCSD=-416.9745569\CCSD(T)=-417.096262\RMSD=7.530e-09\PG=C01 [
 Normal termination of Gaussian 16 at Tue Oct 13 02:41:10 2020.
