   * xtb version 6.2.2 (9d81278992624c895f80dd42a50cac0aa55982e2) compiled by '@Darwin' on 04/03/2020
          program call               : xtb --input N1O1_0_S_3.input N1O1_0_S_3.xyz --ohess --molden --namespace N1O1_0_S_3 output.out
          number of atoms            :                     2
          number of electrons        :                    11
          charge                     :                     0
          spin                       :                   1.5

   ID    Z sym.   atoms
    1    8 O      1
    2    7 N      2

          :  Hamiltonian                  GFN2-xTB          :
 * total energy  :    -6.6420287 Eh     change       -0.1334559E-09 Eh
 * total energy  :    -6.6600724 Eh     change       -0.1804361E-01 Eh
 * total energy  :    -6.6606257 Eh     change       -0.5533461E-03 Eh
 * total energy  :    -6.6609466 Eh     change       -0.3208620E-03 Eh
 * total energy  :    -6.6609489 Eh     change       -0.2363858E-05 Eh
   *** GEOMETRY OPTIMIZATION CONVERGED AFTER 5 ITERATIONS ***

 final structure:
================
2
 xtb: 6.2.2 (9d81278992624c895f80dd42a50cac0aa55982e2)
O         0.61140335361424    0.00000000000000    0.00000000000000
N        -0.61140335361424    0.00000000000000    0.00000000000000

          :  Hamiltonian                  GFN2-xTB          :
         :: gradient norm              0.000138100521 Eh/a0 ::
         :: HOMO-LUMO gap             16.360093271188 eV    ::
         :: SCC energy                -6.677012660876 Eh    ::
         :: -> dispersion             -0.000224411173 Eh    ::
         :: repulsion energy           0.016063734149 Eh    ::

    * Orbital Energies and Occupations

         #    Occupation            Energy/Eh            Energy/eV
      -------------------------------------------------------------
         1        2.0000           -0.7716458             -20.9976
         2        2.0000           -0.6588853             -17.9292
         3        2.0000           -0.5968530             -16.2412
         4        2.0000           -0.5968530             -16.2412
         5        1.0000           -0.5470004             -14.8846
         6        1.0000           -0.3712776             -10.1030
         7        1.0000           -0.3712776             -10.1030 (HOMO)
         8                          0.2299448               6.2571 (LUMO)
      -------------------------------------------------------------
                  HL-Gap            0.6012224 Eh           16.3601 eV

     #   Z        covCN         q      C6AA      Î±(0)
     1   8 O      0.923    -0.120    16.791     5.495
     2   7 N      0.923     0.120    19.138     6.321

Wiberg/Mayer (AO) data.
largest (>0.10) Wiberg bond orders for each atom
          total WBO             WBO to atom ...

molecular dipole:
                 x           y           z       tot (Debye)
 q only:       -0.277       0.000       0.000
   full:       -0.425       0.000       0.000       1.079

   temp. (K)  partition function   enthalpy   heat capacity  entropy
                                   cal/mol     cal/K/mol   cal/K/mol   J/K/mol
  10.00  VIB   1.00                    0.000      0.000     -0.000
         ROT   4.60                   19.873      1.987      5.022
         INT   4.60                   19.873      1.987      5.022
         TR   0.977E+24               49.681      4.968     19.255
         TOT                          69.5541     6.9554    24.2765   101.5728

       T/K    H(0)-H(T)+PV         H(T)/Eh          T*S/Eh         G(T)/Eh
   ------------------------------------------------------------------------
    298.15    0.330674E-02    0.721077E-02    0.227525E-01   -0.155417E-01
    120.00    0.133010E-02    0.523413E-02    0.794646E-02   -0.271233E-02
    100.00    0.110842E-02    0.501245E-02    0.642004E-02   -0.140759E-02
     80.00    0.886732E-03    0.479076E-02    0.493823E-02   -0.147464E-03
     60.00    0.665049E-03    0.456908E-02    0.351242E-02    0.105667E-02
     40.00    0.443366E-03    0.434740E-02    0.216190E-02    0.218549E-02
     20.00    0.221683E-03    0.412572E-02    0.927346E-03    0.319837E-02
     10.00    0.110842E-03    0.401487E-02    0.386871E-03    0.362800E-02 (used)
   ------------------------------------------------------------------------

         :::::::::::::::::::::::::::::::::::::::::::::::::::::
         ::                  THERMODYNAMIC                  ::
         :::::::::::::::::::::::::::::::::::::::::::::::::::::
         :: total free energy          -6.657320923446 Eh   ::
         ::.................................................::
         :: total energy               -6.660948926730 Eh   ::
         :: zero point energy           0.003904032323 Eh   ::
         :: G(RRHO) w/o ZPVE           -0.000276029039 Eh   ::
         :: G(RRHO) contrib.            0.003628003284 Eh   ::
         :::::::::::::::::::::::::::::::::::::::::::::::::::::

           -------------------------------------------------
          | TOTAL ENERGY               -6.660948926730 Eh   |
          | TOTAL ENTHALPY             -6.656934052893 Eh   |
          | TOTAL FREE ENERGY          -6.657320923446 Eh   |
          | GRADIENT NORM               0.000138115844 Eh/Î± |
          | HOMO-LUMO GAP              16.360093263065 eV   |
           -------------------------------------------------

 * finished run on 2020/05/12 at 11:44:29.717
