   * xtb version 6.2.2 (9d81278992624c895f80dd42a50cac0aa55982e2) compiled by '@Darwin' on 04/03/2020
          program call               : xtb --input C3N1_9_S_1.input C3N1_9_S_1.xyz --ohess --molden --namespace C3N1_9_S_1 output.out
          number of atoms            :                     4
          number of electrons        :                    17
          charge                     :                     0
          spin                       :                   0.5

   ID    Z sym.   atoms
    1    7 N      1
    2    6 C      2-4

          :  Hamiltonian                  GFN2-xTB          :
 * total energy  :    -8.9283982 Eh     change        0.1695923E-09 Eh
 * total energy  :    -8.9663222 Eh     change       -0.3792404E-01 Eh
 * total energy  :    -8.9756317 Eh     change       -0.9309476E-02 Eh
 * total energy  :    -8.9786949 Eh     change       -0.3063228E-02 Eh
 * total energy  :    -8.9789332 Eh     change       -0.2382781E-03 Eh
 * total energy  :    -8.9791119 Eh     change       -0.1786639E-03 Eh
 * total energy  :    -8.9791599 Eh     change       -0.4800325E-04 Eh
 * total energy  :    -8.9791772 Eh     change       -0.1734956E-04 Eh
 * total energy  :    -8.9791819 Eh     change       -0.4697077E-05 Eh
   *** GEOMETRY OPTIMIZATION CONVERGED AFTER 9 ITERATIONS ***

 final structure:
================
4
 xtb: 6.2.2 (9d81278992624c895f80dd42a50cac0aa55982e2)
N        -1.14257179846387   -0.04603651491333    0.04334652675902
C        -0.05438193299496    0.75635471740074    0.08065301305179
C         1.19572348932733    0.04928461551309   -0.05675839985027
C         0.00123024213150   -0.75960281800050   -0.06724213996054

          :  Hamiltonian                  GFN2-xTB          :
         :: gradient norm              0.000639820064 Eh/a0 ::
         :: HOMO-LUMO gap              1.589973471489 eV    ::
         :: SCC energy                -9.087471276395 Eh    ::
         :: -> dispersion             -0.001725017388 Eh    ::
         :: repulsion energy           0.108289341763 Eh    ::

    * Orbital Energies and Occupations

         #    Occupation            Energy/Eh            Energy/eV
      -------------------------------------------------------------
         1        2.0000           -0.7703714             -20.9629
         2        2.0000           -0.6845483             -18.6275
         3        2.0000           -0.6314442             -17.1825
         4        2.0000           -0.5949088             -16.1883
         5        2.0000           -0.5568634             -15.1530
         6        2.0000           -0.5211559             -14.1814
         7        2.0000           -0.4764484             -12.9648
         8        1.9998           -0.4417460             -12.0205
         9        1.0002           -0.4252851             -11.5726 (HOMO)
        10                         -0.3668549              -9.9826 (LUMO)
        11                         -0.3106311              -8.4527
        12                         -0.2557679              -6.9598
        13                          0.1061670               2.8890
        14                          0.1880949               5.1183
        15                          0.2021728               5.5014
        16                          0.2969810               8.0813
      -------------------------------------------------------------
                  HL-Gap            0.0584302 Eh            1.5900 eV

     #   Z        covCN         q      C6AA      Î±(0)
     1   7 N      1.834    -0.111    24.191     7.289
     2   6 C      2.864     0.113    25.508     8.279
     3   6 C      1.973    -0.115    34.248     9.451
     4   6 C      2.864     0.113    25.508     8.279

Wiberg/Mayer (AO) data.
largest (>0.10) Wiberg bond orders for each atom
          total WBO             WBO to atom ...

molecular dipole:
                 x           y           z       tot (Debye)
 q only:       -0.030      -0.002       0.006
   full:       -0.316      -0.016       0.042       0.812

 projected vibrational frequencies (cm-1)
eigval :       -0.00    -0.00    -0.00    -0.00     0.00     0.00
eigval :     -257.41   122.38   474.62   931.34  1321.92  1492.92

   temp. (K)  partition function   enthalpy   heat capacity  entropy
                                   cal/mol     cal/K/mol   cal/K/mol   J/K/mol
  10.00  VIB   1.00                    0.000      0.000     -0.020
         ROT   36.7                   29.809      2.981     10.141
         INT   36.7                   29.809      2.981     10.121
         TR   0.210E+25               49.681      4.968     20.778
         TOT                          79.4904     7.9491    30.8999   129.2850

       T/K    H(0)-H(T)+PV         H(T)/Eh          T*S/Eh         G(T)/Eh
   ------------------------------------------------------------------------
    298.15    0.477634E-02    0.146708E-01    0.293798E-01   -0.147090E-01
    120.00    0.169457E-02    0.115891E-01    0.996621E-02    0.162286E-02
    100.00    0.138487E-02    0.112794E-01    0.802350E-02    0.325586E-02
     80.00    0.108324E-02    0.109777E-01    0.615014E-02    0.482760E-02
     60.00    0.791382E-03    0.106859E-01    0.436116E-02    0.632472E-02
     40.00    0.513621E-03    0.104081E-01    0.268255E-02    0.772557E-02
     20.00    0.253436E-03    0.101479E-01    0.116109E-02    0.898684E-02
     10.00    0.126676E-03    0.100212E-01    0.492420E-03    0.952875E-02 (used)
   ------------------------------------------------------------------------

         :::::::::::::::::::::::::::::::::::::::::::::::::::::
         ::                  THERMODYNAMIC                  ::
         :::::::::::::::::::::::::::::::::::::::::::::::::::::
         :: total free energy          -8.969653182720 Eh   ::
         ::.................................................::
         :: total energy               -8.979181931809 Eh   ::
         :: zero point energy           0.009894493533 Eh   ::
         :: G(RRHO) w/o ZPVE           -0.000365744443 Eh   ::
         :: G(RRHO) contrib.            0.009528749090 Eh   ::
         :::::::::::::::::::::::::::::::::::::::::::::::::::::

           -------------------------------------------------
          | TOTAL ENERGY               -8.979181931809 Eh   |
          | TOTAL ENTHALPY             -8.969160762248 Eh   |
          | TOTAL FREE ENERGY          -8.969653182720 Eh   |
          | GRADIENT NORM               0.000639920142 Eh/Î± |
          | HOMO-LUMO GAP               1.589967403892 eV   |
           -------------------------------------------------

 * finished run on 2020/05/12 at 11:45:06.629
