   * xtb version 6.2.2 (9d81278992624c895f80dd42a50cac0aa55982e2) compiled by '@Darwin' on 04/03/2020
          program call               : xtb --input H1C3N1_7_S_0.input H1C3N1_7_S_0.xyz --ohess --molden --namespace H1C3N1_7_S_0 output.out
          number of atoms            :                     5
          number of electrons        :                    18
          charge                     :                     0
          spin                       :                   0.0

   ID    Z sym.   atoms
    1    6 C      1-3
    2    7 N      4
    3    1 H      5

          :  Hamiltonian                  GFN2-xTB          :
 * total energy  :    -9.3839067 Eh     change       -0.1901252E-09 Eh
 * total energy  :    -9.4869549 Eh     change       -0.1030482E+00 Eh
 * total energy  :    -9.3511120 Eh     change        0.1358429E+00 Eh
 * total energy  :    -9.5468036 Eh     change       -0.1956916E+00 Eh
 * total energy  :    -9.5536033 Eh     change       -0.6799696E-02 Eh
 * total energy  :    -9.5696224 Eh     change       -0.1601909E-01 Eh
 * total energy  :    -9.5687698 Eh     change        0.8525992E-03 Eh
 * total energy  :    -9.5762309 Eh     change       -0.7461086E-02 Eh
 * total energy  :    -9.5779948 Eh     change       -0.1763924E-02 Eh
 * total energy  :    -9.5786137 Eh     change       -0.6188702E-03 Eh
 * total energy  :    -9.5935044 Eh     change       -0.8759121E-02 Eh
 * total energy  :    -9.5990260 Eh     change       -0.5521583E-02 Eh
 * total energy  :    -9.5994989 Eh     change       -0.4729006E-03 Eh
 * total energy  :    -9.6001327 Eh     change       -0.6338471E-03 Eh
 * total energy  :    -9.6001761 Eh     change       -0.4331875E-04 Eh
 * total energy  :    -9.6002178 Eh     change       -0.4171404E-04 Eh
 * total energy  :    -9.6002784 Eh     change       -0.6063818E-04 Eh
 * total energy  :    -9.6002870 Eh     change       -0.8548945E-05 Eh
 * total energy  :    -9.6002877 Eh     change       -0.7511944E-06 Eh
   *** GEOMETRY OPTIMIZATION CONVERGED AFTER 35 ITERATIONS ***

 final structure:
================
5
 xtb: 6.2.2 (9d81278992624c895f80dd42a50cac0aa55982e2)
C         1.84829415635349   -0.50104820587236   -0.15073942442166
C         0.59990544903773   -0.40689656226103   -0.11875440877158
C        -0.63179945673019    0.36125211903171    0.10594691355628
N        -0.88085179466947   -0.79448513696368   -0.22203311530562
H        -0.93554835399156    1.34117778606536    0.38558003494257

          :  Hamiltonian                  GFN2-xTB          :
         :: gradient norm              0.000318449827 Eh/a0 ::
         :: HOMO-LUMO gap              2.717135967631 eV    ::
         :: SCC energy                -9.784862494658 Eh    ::
         :: -> dispersion             -0.002164726268 Eh    ::
         :: repulsion energy           0.184574724503 Eh    ::

    * Orbital Energies and Occupations

         #    Occupation            Energy/Eh            Energy/eV
      -------------------------------------------------------------
         1        2.0000           -0.7328094             -19.9408
         2        2.0000           -0.6476338             -17.6230
         3        2.0000           -0.6236529             -16.9705
         4        2.0000           -0.5884319             -16.0120
         5        2.0000           -0.5672986             -15.4370
         6        2.0000           -0.5134094             -13.9706
         7        2.0000           -0.4626609             -12.5896
         8        2.0000           -0.4190434             -11.4028
         9        2.0000           -0.4188229             -11.3968 (HOMO)
        10                         -0.3189699              -8.6796 (LUMO)
        11                         -0.3091716              -8.4130
        12                         -0.1775355              -4.8310
        13                         -0.0779432              -2.1209
        14                          0.0466820               1.2703
        15                          0.1003761               2.7314
        16                          0.6965504              18.9541
        17                          0.9289176              25.2771
      -------------------------------------------------------------
                  HL-Gap            0.0998530 Eh            2.7171 eV

     #   Z        covCN         q      C6AA      Î±(0)
     1   6 C      0.981    -0.184    42.045    10.891
     2   6 C      2.859     0.064    26.556     8.447
     3   6 C      2.816     0.140    24.943     8.183
     4   7 N      1.810    -0.111    24.173     7.284
     5   1 H      0.927     0.091     1.872     2.140

Wiberg/Mayer (AO) data.
largest (>0.10) Wiberg bond orders for each atom
          total WBO             WBO to atom ...

molecular dipole:
                 x           y           z       tot (Debye)
 q only:       -0.713       0.616       0.178
   full:       -1.254       1.025       0.297       4.185

 projected vibrational frequencies (cm-1)
eigval :       -0.00     0.00     0.00     0.00     0.00     0.00
eigval :      265.90   369.86   616.40   784.62   849.52   889.06
eigval :     1698.53  1992.07  3230.03

   temp. (K)  partition function   enthalpy   heat capacity  entropy
                                   cal/mol     cal/K/mol   cal/K/mol   J/K/mol
  10.00  VIB   1.00                    0.000      0.000     -0.003
         ROT   110.                   29.809      2.981     12.326
         INT   110.                   29.809      2.981     12.323
         TR   0.217E+25               49.681      4.968     20.838
         TOT                          79.4904     7.9490    33.1609   138.7453

       T/K    H(0)-H(T)+PV         H(T)/Eh          T*S/Eh         G(T)/Eh
   ------------------------------------------------------------------------
    298.15    0.493966E-02    0.293069E-01    0.303189E-01   -0.101198E-02
    120.00    0.159474E-02    0.259620E-01    0.102138E-01    0.157482E-01
    100.00    0.130251E-02    0.256698E-01    0.824535E-02    0.174244E-01
     80.00    0.102587E-02    0.253931E-01    0.634965E-02    0.190435E-01
     60.00    0.762359E-03    0.251296E-01    0.453507E-02    0.205945E-01
     40.00    0.506792E-03    0.248740E-01    0.281628E-02    0.220578E-01
     20.00    0.253352E-03    0.246206E-01    0.123250E-02    0.233881E-01
     10.00    0.126676E-03    0.244939E-01    0.528453E-03    0.239655E-01 (used)
   ------------------------------------------------------------------------

         :::::::::::::::::::::::::::::::::::::::::::::::::::::
         ::                  THERMODYNAMIC                  ::
         :::::::::::::::::::::::::::::::::::::::::::::::::::::
         :: total free energy          -9.576322230166 Eh   ::
         ::.................................................::
         :: total energy               -9.600287704144 Eh   ::
         :: zero point energy           0.024367250718 Eh   ::
         :: G(RRHO) w/o ZPVE           -0.000401776739 Eh   ::
         :: G(RRHO) contrib.            0.023965473978 Eh   ::
         :::::::::::::::::::::::::::::::::::::::::::::::::::::

           -------------------------------------------------
          | TOTAL ENERGY               -9.600287704144 Eh   |
          | TOTAL ENTHALPY             -9.575793777411 Eh   |
          | TOTAL FREE ENERGY          -9.576322230166 Eh   |
          | GRADIENT NORM               0.000318654523 Eh/Î± |
          | HOMO-LUMO GAP               2.717137545320 eV   |
           -------------------------------------------------

 * finished run on 2020/05/12 at 11:44:52.991
